
    -----------------------------------------------------------------------
          Psi4: An Open-Source Ab Initio Electronic Structure Package
                               Psi4 1.2.1 release

                         Git: Rev {HEAD} 406f4de 


    R. M. Parrish, L. A. Burns, D. G. A. Smith, A. C. Simmonett,
    A. E. DePrince III, E. G. Hohenstein, U. Bozkaya, A. Yu. Sokolov,
    R. Di Remigio, R. M. Richard, J. F. Gonthier, A. M. James,
    H. R. McAlexander, A. Kumar, M. Saitow, X. Wang, B. P. Pritchard,
    P. Verma, H. F. Schaefer III, K. Patkowski, R. A. King, E. F. Valeev,
    F. A. Evangelista, J. M. Turney, T. D. Crawford, and C. D. Sherrill,
    J. Chem. Theory Comput. 13(7) pp 3185--3197 (2017).
    (doi: 10.1021/acs.jctc.7b00174)


                         Additional Contributions by
    P. Kraus, H. Kruse, M. H. Lechner, M. C. Schieber, and R. A. Shaw

    -----------------------------------------------------------------------


    Psi4 started on: Thursday, 04 July 2019 03:56PM

    Process ID: 73843
    Host:       comp0002
    PSIDATADIR: /usr/local/psi4/share/psi4
    Memory:     500.0 MiB
    Threads:    1
    
  ==> Input File <==

--------------------------------------------------------------------------
#! STO-3G H2 Hartree-Fock Energy Point
# see also: http://pubchemqc.riken.jp/cgi-bin/molecularquery.py?name=hydrogen

molecule h2 {
H            0.0   0.0   0.0
H            0.0   0.0   R
unit bohr
}

Rvals=[0.5, 0.6, 0.7, 0.8, 0.9, 1.0, 1.1, 1.2, 1.3, 1.4, 1.5, 1.6, 2.0, 3.0, 4.0, 5.0, 6.0]

set {
  basis STO-3G
}


for R in Rvals:
   h2.R = R
   ene=energy('hf')
   print (R, ene)
--------------------------------------------------------------------------
Molecule: geometry: Molecule is not complete, please use 'update_geometry'
                    once all variables are set.

Molecule: Setting a variable updates the molecular geometry, for
          cartesian molecules this can lead to surprising behaviour.
          Freezing COM and orientation to prevent this.

Molecule: Setting geometry variable R to 0.500000

*** tstart() called on comp0002
*** at Thu Jul  4 15:56:02 2019

   => Loading Basis Set <=

    Name: STO-3G
    Role: ORBITAL
    Keyword: BASIS
    atoms 1-2 entry H          line    19 file /usr/local/psi4/share/psi4/basis/sto-3g.gbs 

    There are an even number of electrons - assuming singlet.
    Specify the multiplicity in the molecule input block.


         ---------------------------------------------------------
                                   SCF
            by Justin Turney, Rob Parrish, Andy Simmonett
                             and Daniel Smith
                              RHF Reference
                        1 Threads,    500 MiB Core
         ---------------------------------------------------------

  ==> Geometry <==

    Molecular point group: c2v
    Full point group: C_inf_v

    Geometry (in Bohr), charge = 0, multiplicity = 1:

       Center              X                  Y                   Z               Mass       
    ------------   -----------------  -----------------  -----------------  -----------------
         H            0.000000000000     0.000000000000     0.000000000000     1.007825032070
         H            0.000000000000     0.000000000000     0.500000000000     1.007825032070

  Running in c2v symmetry.

  Rotational constants: A = ************  B =    238.92912  C =    238.92912 [cm^-1]
  Rotational constants: A = ************  B = 7162914.77958  C = 7162914.77958 [MHz]
  Nuclear repulsion =    2.000000000000000

  Charge       = 0
  Multiplicity = 1
  Electrons    = 2
  Nalpha       = 1
  Nbeta        = 1

  ==> Algorithm <==

  SCF Algorithm Type is DF.
  DIIS enabled.
  MOM disabled.
  Fractional occupation disabled.
  Guess Type is SAD.
  Energy threshold   = 1.00e-06
  Density threshold  = 1.00e-06
  Integral threshold = 0.00e+00

  ==> Primary Basis <==

  Basis Set: STO-3G
    Blend: STO-3G
    Number of shells: 2
    Number of basis function: 2
    Number of Cartesian functions: 2
    Spherical Harmonics?: true
    Max angular momentum: 0

   => Loading Basis Set <=

    Name: (STO-3G AUX)
    Role: JKFIT
    Keyword: DF_BASIS_SCF
    atoms 1-2 entry H          line    23 file /usr/local/psi4/share/psi4/basis/def2-svp-jkfit.gbs 

  ==> Pre-Iterations <==

   -------------------------------------------------------
    Irrep   Nso     Nmo     Nalpha   Nbeta   Ndocc  Nsocc
   -------------------------------------------------------
     A1         2       2       0       0       0       0
     A2         0       0       0       0       0       0
     B1         0       0       0       0       0       0
     B2         0       0       0       0       0       0
   -------------------------------------------------------
    Total       2       2       1       1       1       0
   -------------------------------------------------------

  ==> Integral Setup <==

  DFHelper Memory: AOs need 0.000 [GiB]; user supplied 0.366 [GiB]. Using in-core AOs.

  ==> MemDFJK: Density-Fitted J/K Matrices <==

    J tasked:                   Yes
    K tasked:                   Yes
    wK tasked:                   No
    OpenMP threads:               1
    Memory (MB):                375
    Algorithm:                 Core
    Schwarz Cutoff:           1E-12
    Mask sparsity (%):       0.0000
    Fitting Condition:        1E-12

   => Auxiliary Basis Set <=

  Basis Set: (STO-3G AUX)
    Blend: DEF2-SVP-JKFIT
    Number of shells: 12
    Number of basis function: 36
    Number of Cartesian functions: 40
    Spherical Harmonics?: true
    Max angular momentum: 2

  Minimum eigenvalue in the overlap matrix is 5.9473134691E-02.
  Using Symmetric Orthogonalization.

  SCF Guess: Superposition of Atomic Densities via on-the-fly atomic UHF.

  ==> Iterations <==

                           Total Energy        Delta E     RMS |[F,P]|

   @DF-RHF iter   0:    -0.26957005176641   -2.69570e-01   1.15543e-15 
   @DF-RHF iter   1:    -0.40335789507272   -1.33788e-01   1.15543e-15 
   @DF-RHF iter   2:    -0.40335789507272    9.99201e-16   4.62173e-16 DIIS

  ==> Post-Iterations <==

    Orbital Energies [Eh]
    ---------------------

    Doubly Occupied:                                                      

       1A1    -0.823346  

    Virtual:                                                              

       2A1     1.442950  

    Final Occupation by Irrep:
             A1    A2    B1    B2 
    DOCC [     1,    0,    0,    0 ]

  Energy converged.

  @DF-RHF Final Energy:    -0.40335789507272

   => Energetics <=

    Nuclear Repulsion Energy =              2.0000000000000000
    One-Electron Energy =                  -3.1600230618617586
    Two-Electron Energy =                   0.7566651667890426
    Total Energy =                         -0.4033578950727160



Properties will be evaluated at   0.000000,   0.000000,   0.000000 [a0]

Properties computed using the SCF density matrix

  Nuclear Dipole Moment: [e a0]
     X:     0.0000      Y:     0.0000      Z:     0.5000

  Electronic Dipole Moment: [e a0]
     X:     0.0000      Y:     0.0000      Z:    -0.5000

  Dipole Moment: [e a0]
     X:     0.0000      Y:     0.0000      Z:    -0.0000     Total:     0.0000

  Dipole Moment: [D]
     X:     0.0000      Y:     0.0000      Z:    -0.0000     Total:     0.0000


*** tstop() called on comp0002 at Thu Jul  4 15:56:03 2019
Module time:
	user time   =       0.52 seconds =       0.01 minutes
	system time =       0.67 seconds =       0.01 minutes
	total time  =          1 seconds =       0.02 minutes
Total time:
	user time   =       0.52 seconds =       0.01 minutes
	system time =       0.67 seconds =       0.01 minutes
	total time  =          1 seconds =       0.02 minutes
Molecule: Setting geometry variable R to 0.600000

*** tstart() called on comp0002
*** at Thu Jul  4 15:56:03 2019

   => Loading Basis Set <=

    Name: STO-3G
    Role: ORBITAL
    Keyword: BASIS
    atoms 1-2 entry H          line    19 file /usr/local/psi4/share/psi4/basis/sto-3g.gbs 


         ---------------------------------------------------------
                                   SCF
            by Justin Turney, Rob Parrish, Andy Simmonett
                             and Daniel Smith
                              RHF Reference
                        1 Threads,    500 MiB Core
         ---------------------------------------------------------

  ==> Geometry <==

    Molecular point group: c2v
    Full point group: C_inf_v

    Geometry (in Bohr), charge = 0, multiplicity = 1:

       Center              X                  Y                   Z               Mass       
    ------------   -----------------  -----------------  -----------------  -----------------
         H            0.000000000000     0.000000000000     0.000000000000     1.007825032070
         H            0.000000000000     0.000000000000     0.600000000000     1.007825032070

  Running in c2v symmetry.

  Rotational constants: A = ************  B =    165.92300  C =    165.92300 [cm^-1]
  Rotational constants: A = ************  B = 4974246.37471  C = 4974246.37471 [MHz]
  Nuclear repulsion =    1.666666666666667

  Charge       = 0
  Multiplicity = 1
  Electrons    = 2
  Nalpha       = 1
  Nbeta        = 1

  ==> Algorithm <==

  SCF Algorithm Type is DF.
  DIIS enabled.
  MOM disabled.
  Fractional occupation disabled.
  Guess Type is SAD.
  Energy threshold   = 1.00e-06
  Density threshold  = 1.00e-06
  Integral threshold = 0.00e+00

  ==> Primary Basis <==

  Basis Set: STO-3G
    Blend: STO-3G
    Number of shells: 2
    Number of basis function: 2
    Number of Cartesian functions: 2
    Spherical Harmonics?: true
    Max angular momentum: 0

   => Loading Basis Set <=

    Name: (STO-3G AUX)
    Role: JKFIT
    Keyword: DF_BASIS_SCF
    atoms 1-2 entry H          line    23 file /usr/local/psi4/share/psi4/basis/def2-svp-jkfit.gbs 

  ==> Pre-Iterations <==

   -------------------------------------------------------
    Irrep   Nso     Nmo     Nalpha   Nbeta   Ndocc  Nsocc
   -------------------------------------------------------
     A1         2       2       0       0       0       0
     A2         0       0       0       0       0       0
     B1         0       0       0       0       0       0
     B2         0       0       0       0       0       0
   -------------------------------------------------------
    Total       2       2       1       1       1       0
   -------------------------------------------------------

  ==> Integral Setup <==

  DFHelper Memory: AOs need 0.000 [GiB]; user supplied 0.366 [GiB]. Using in-core AOs.

  ==> MemDFJK: Density-Fitted J/K Matrices <==

    J tasked:                   Yes
    K tasked:                   Yes
    wK tasked:                   No
    OpenMP threads:               1
    Memory (MB):                375
    Algorithm:                 Core
    Schwarz Cutoff:           1E-12
    Mask sparsity (%):       0.0000
    Fitting Condition:        1E-12

   => Auxiliary Basis Set <=

  Basis Set: (STO-3G AUX)
    Blend: DEF2-SVP-JKFIT
    Number of shells: 12
    Number of basis function: 36
    Number of Cartesian functions: 40
    Spherical Harmonics?: true
    Max angular momentum: 2

  Minimum eigenvalue in the overlap matrix is 8.3469307212E-02.
  Using Symmetric Orthogonalization.

  SCF Guess: Superposition of Atomic Densities via on-the-fly atomic UHF.

  ==> Iterations <==

                           Total Energy        Delta E     RMS |[F,P]|

   @DF-RHF iter   0:    -0.49278549023690   -4.92785e-01   1.37395e-15 
   @DF-RHF iter   1:    -0.66827974937243   -1.75494e-01   0.00000e+00 
   @DF-RHF iter   2:    -0.66827974937243    1.11022e-16   3.92558e-16 DIIS

  ==> Post-Iterations <==

    Orbital Energies [Eh]
    ---------------------

    Doubly Occupied:                                                      

       1A1    -0.792705  

    Virtual:                                                              

       2A1     1.332906  

    Final Occupation by Irrep:
             A1    A2    B1    B2 
    DOCC [     1,    0,    0,    0 ]

  Energy converged.

  @DF-RHF Final Energy:    -0.66827974937243

   => Energetics <=

    Nuclear Repulsion Energy =              1.6666666666666667
    One-Electron Energy =                  -3.0844826491637329
    Two-Electron Energy =                   0.7495362331246318
    Total Energy =                         -0.6682797493724344



Properties will be evaluated at   0.000000,   0.000000,   0.000000 [a0]

Properties computed using the SCF density matrix

  Nuclear Dipole Moment: [e a0]
     X:     0.0000      Y:     0.0000      Z:     0.6000

  Electronic Dipole Moment: [e a0]
     X:     0.0000      Y:     0.0000      Z:    -0.6000

  Dipole Moment: [e a0]
     X:     0.0000      Y:     0.0000      Z:    -0.0000     Total:     0.0000

  Dipole Moment: [D]
     X:     0.0000      Y:     0.0000      Z:    -0.0000     Total:     0.0000


*** tstop() called on comp0002 at Thu Jul  4 15:56:03 2019
Module time:
	user time   =       0.53 seconds =       0.01 minutes
	system time =       0.77 seconds =       0.01 minutes
	total time  =          0 seconds =       0.00 minutes
Total time:
	user time   =       1.08 seconds =       0.02 minutes
	system time =       1.53 seconds =       0.03 minutes
	total time  =          1 seconds =       0.02 minutes
Molecule: Setting geometry variable R to 0.700000

*** tstart() called on comp0002
*** at Thu Jul  4 15:56:03 2019

   => Loading Basis Set <=

    Name: STO-3G
    Role: ORBITAL
    Keyword: BASIS
    atoms 1-2 entry H          line    19 file /usr/local/psi4/share/psi4/basis/sto-3g.gbs 


         ---------------------------------------------------------
                                   SCF
            by Justin Turney, Rob Parrish, Andy Simmonett
                             and Daniel Smith
                              RHF Reference
                        1 Threads,    500 MiB Core
         ---------------------------------------------------------

  ==> Geometry <==

    Molecular point group: c2v
    Full point group: C_inf_v

    Geometry (in Bohr), charge = 0, multiplicity = 1:

       Center              X                  Y                   Z               Mass       
    ------------   -----------------  -----------------  -----------------  -----------------
         H            0.000000000000     0.000000000000     0.000000000000     1.007825032070
         H            0.000000000000     0.000000000000     0.700000000000     1.007825032070

  Running in c2v symmetry.

  Rotational constants: A = ************  B =    121.90261  C =    121.90261 [cm^-1]
  Rotational constants: A = ************  B = 3654548.35693  C = 3654548.35693 [MHz]
  Nuclear repulsion =    1.428571428571429

  Charge       = 0
  Multiplicity = 1
  Electrons    = 2
  Nalpha       = 1
  Nbeta        = 1

  ==> Algorithm <==

  SCF Algorithm Type is DF.
  DIIS enabled.
  MOM disabled.
  Fractional occupation disabled.
  Guess Type is SAD.
  Energy threshold   = 1.00e-06
  Density threshold  = 1.00e-06
  Integral threshold = 0.00e+00

  ==> Primary Basis <==

  Basis Set: STO-3G
    Blend: STO-3G
    Number of shells: 2
    Number of basis function: 2
    Number of Cartesian functions: 2
    Spherical Harmonics?: true
    Max angular momentum: 0

   => Loading Basis Set <=

    Name: (STO-3G AUX)
    Role: JKFIT
    Keyword: DF_BASIS_SCF
    atoms 1-2 entry H          line    23 file /usr/local/psi4/share/psi4/basis/def2-svp-jkfit.gbs 

  ==> Pre-Iterations <==

   -------------------------------------------------------
    Irrep   Nso     Nmo     Nalpha   Nbeta   Ndocc  Nsocc
   -------------------------------------------------------
     A1         2       2       0       0       0       0
     A2         0       0       0       0       0       0
     B1         0       0       0       0       0       0
     B2         0       0       0       0       0       0
   -------------------------------------------------------
    Total       2       2       1       1       1       0
   -------------------------------------------------------

  ==> Integral Setup <==

  DFHelper Memory: AOs need 0.000 [GiB]; user supplied 0.366 [GiB]. Using in-core AOs.

  ==> MemDFJK: Density-Fitted J/K Matrices <==

    J tasked:                   Yes
    K tasked:                   Yes
    wK tasked:                   No
    OpenMP threads:               1
    Memory (MB):                375
    Algorithm:                 Core
    Schwarz Cutoff:           1E-12
    Mask sparsity (%):       0.0000
    Fitting Condition:        1E-12

   => Auxiliary Basis Set <=

  Basis Set: (STO-3G AUX)
    Blend: DEF2-SVP-JKFIT
    Number of shells: 12
    Number of basis function: 36
    Number of Cartesian functions: 40
    Spherical Harmonics?: true
    Max angular momentum: 2

  Minimum eigenvalue in the overlap matrix is 1.1036527368E-01.
  Using Symmetric Orthogonalization.

  SCF Guess: Superposition of Atomic Densities via on-the-fly atomic UHF.

  ==> Iterations <==

                           Total Energy        Delta E     RMS |[F,P]|

   @DF-RHF iter   0:    -0.62112834148102   -6.21128e-01   1.03143e-15 
   @DF-RHF iter   1:    -0.83715198283436   -2.16024e-01   1.71906e-16 
   @DF-RHF iter   2:    -0.83715198283436   -3.33067e-16   1.71906e-16 DIIS

  ==> Post-Iterations <==

    Orbital Energies [Eh]
    ---------------------

    Doubly Occupied:                                                      

       1A1    -0.762066  

    Virtual:                                                              

       2A1     1.225263  

    Final Occupation by Irrep:
             A1    A2    B1    B2 
    DOCC [     1,    0,    0,    0 ]

  Energy converged.

  @DF-RHF Final Energy:    -0.83715198283436

   => Energetics <=

    Nuclear Repulsion Energy =              1.4285714285714286
    One-Electron Energy =                  -3.0073146646921307
    Two-Electron Energy =                   0.7415912532863455
    PCM Polarization Energy =               0.0000000000000000
    Total Energy =                         -0.8371519828343567

    Alert: EFP and PCM quantities not currently incorporated into SCF psivars.

Properties will be evaluated at   0.000000,   0.000000,   0.000000 [a0]

Properties computed using the SCF density matrix

  Nuclear Dipole Moment: [e a0]
     X:     0.0000      Y:     0.0000      Z:     0.7000

  Electronic Dipole Moment: [e a0]
     X:     0.0000      Y:     0.0000      Z:    -0.7000

  Dipole Moment: [e a0]
     X:     0.0000      Y:     0.0000      Z:    -0.0000     Total:     0.0000

  Dipole Moment: [D]
     X:     0.0000      Y:     0.0000      Z:    -0.0000     Total:     0.0000


*** tstop() called on comp0002 at Thu Jul  4 15:56:03 2019
Module time:
	user time   =       0.48 seconds =       0.01 minutes
	system time =       0.44 seconds =       0.01 minutes
	total time  =          0 seconds =       0.00 minutes
Total time:
	user time   =       1.58 seconds =       0.03 minutes
	system time =       2.00 seconds =       0.03 minutes
	total time  =          1 seconds =       0.02 minutes
Molecule: Setting geometry variable R to 0.800000

*** tstart() called on comp0002
*** at Thu Jul  4 15:56:03 2019

   => Loading Basis Set <=

    Name: STO-3G
    Role: ORBITAL
    Keyword: BASIS
    atoms 1-2 entry H          line    19 file /usr/local/psi4/share/psi4/basis/sto-3g.gbs 


         ---------------------------------------------------------
                                   SCF
            by Justin Turney, Rob Parrish, Andy Simmonett
                             and Daniel Smith
                              RHF Reference
                        1 Threads,    500 MiB Core
         ---------------------------------------------------------

  ==> Geometry <==

    Molecular point group: c2v
    Full point group: C_inf_v

    Geometry (in Bohr), charge = 0, multiplicity = 1:

       Center              X                  Y                   Z               Mass       
    ------------   -----------------  -----------------  -----------------  -----------------
         H            0.000000000000     0.000000000000     0.000000000000     1.007825032070
         H            0.000000000000     0.000000000000     0.800000000000     1.007825032070

  Running in c2v symmetry.

  Rotational constants: A = ************  B =     93.33169  C =     93.33169 [cm^-1]
  Rotational constants: A = ************  B = 2798013.58578  C = 2798013.58578 [MHz]
  Nuclear repulsion =    1.250000000000000

  Charge       = 0
  Multiplicity = 1
  Electrons    = 2
  Nalpha       = 1
  Nbeta        = 1

  ==> Algorithm <==

  SCF Algorithm Type is DF.
  DIIS enabled.
  MOM disabled.
  Fractional occupation disabled.
  Guess Type is SAD.
  Energy threshold   = 1.00e-06
  Density threshold  = 1.00e-06
  Integral threshold = 0.00e+00

  ==> Primary Basis <==

  Basis Set: STO-3G
    Blend: STO-3G
    Number of shells: 2
    Number of basis function: 2
    Number of Cartesian functions: 2
    Spherical Harmonics?: true
    Max angular momentum: 0

   => Loading Basis Set <=

    Name: (STO-3G AUX)
    Role: JKFIT
    Keyword: DF_BASIS_SCF
    atoms 1-2 entry H          line    23 file /usr/local/psi4/share/psi4/basis/def2-svp-jkfit.gbs 

  ==> Pre-Iterations <==

   -------------------------------------------------------
    Irrep   Nso     Nmo     Nalpha   Nbeta   Ndocc  Nsocc
   -------------------------------------------------------
     A1         2       2       0       0       0       0
     A2         0       0       0       0       0       0
     B1         0       0       0       0       0       0
     B2         0       0       0       0       0       0
   -------------------------------------------------------
    Total       2       2       1       1       1       0
   -------------------------------------------------------

  ==> Integral Setup <==

  DFHelper Memory: AOs need 0.000 [GiB]; user supplied 0.366 [GiB]. Using in-core AOs.

  ==> MemDFJK: Density-Fitted J/K Matrices <==

    J tasked:                   Yes
    K tasked:                   Yes
    wK tasked:                   No
    OpenMP threads:               1
    Memory (MB):                375
    Algorithm:                 Core
    Schwarz Cutoff:           1E-12
    Mask sparsity (%):       0.0000
    Fitting Condition:        1E-12

   => Auxiliary Basis Set <=

  Basis Set: (STO-3G AUX)
    Blend: DEF2-SVP-JKFIT
    Number of shells: 12
    Number of basis function: 36
    Number of Cartesian functions: 40
    Spherical Harmonics?: true
    Max angular momentum: 2

  Minimum eigenvalue in the overlap matrix is 1.3964143374E-01.
  Using Symmetric Orthogonalization.

  SCF Guess: Superposition of Atomic Densities via on-the-fly atomic UHF.

  ==> Iterations <==

                           Total Energy        Delta E     RMS |[F,P]|

   @DF-RHF iter   0:    -0.69343059191479   -6.93431e-01   1.84829e-15 
   @DF-RHF iter   1:    -0.94733155765587   -2.53901e-01   4.62073e-16 
   @DF-RHF iter   2:    -0.94733155765587    0.00000e+00   1.54024e-16 DIIS

  ==> Post-Iterations <==

    Orbital Energies [Eh]
    ---------------------

    Doubly Occupied:                                                      

       1A1    -0.732169  

    Virtual:                                                              

       2A1     1.123207  

    Final Occupation by Irrep:
             A1    A2    B1    B2 
    DOCC [     1,    0,    0,    0 ]

  Energy converged.

  @DF-RHF Final Energy:    -0.94733155765587

   => Energetics <=

    Nuclear Repulsion Energy =              1.2500000000000000
    One-Electron Energy =                  -2.9303257748269154
    Two-Electron Energy =                   0.7329942171710482
    PCM Polarization Energy =               0.0000000000000000
    Total Energy =                         -0.9473315576558672

    Alert: EFP and PCM quantities not currently incorporated into SCF psivars.

Properties will be evaluated at   0.000000,   0.000000,   0.000000 [a0]

Properties computed using the SCF density matrix

  Nuclear Dipole Moment: [e a0]
     X:     0.0000      Y:     0.0000      Z:     0.8000

  Electronic Dipole Moment: [e a0]
     X:     0.0000      Y:     0.0000      Z:    -0.8000

  Dipole Moment: [e a0]
     X:     0.0000      Y:     0.0000      Z:    -0.0000     Total:     0.0000

  Dipole Moment: [D]
     X:     0.0000      Y:     0.0000      Z:    -0.0000     Total:     0.0000


*** tstop() called on comp0002 at Thu Jul  4 15:56:04 2019
Module time:
	user time   =       0.49 seconds =       0.01 minutes
	system time =       0.49 seconds =       0.01 minutes
	total time  =          1 seconds =       0.02 minutes
Total time:
	user time   =       2.09 seconds =       0.03 minutes
	system time =       2.52 seconds =       0.04 minutes
	total time  =          2 seconds =       0.03 minutes
Molecule: Setting geometry variable R to 0.900000

*** tstart() called on comp0002
*** at Thu Jul  4 15:56:04 2019

   => Loading Basis Set <=

    Name: STO-3G
    Role: ORBITAL
    Keyword: BASIS
    atoms 1-2 entry H          line    19 file /usr/local/psi4/share/psi4/basis/sto-3g.gbs 


         ---------------------------------------------------------
                                   SCF
            by Justin Turney, Rob Parrish, Andy Simmonett
                             and Daniel Smith
                              RHF Reference
                        1 Threads,    500 MiB Core
         ---------------------------------------------------------

  ==> Geometry <==

    Molecular point group: c2v
    Full point group: C_inf_v

    Geometry (in Bohr), charge = 0, multiplicity = 1:

       Center              X                  Y                   Z               Mass       
    ------------   -----------------  -----------------  -----------------  -----------------
         H            0.000000000000     0.000000000000     0.000000000000     1.007825032070
         H            0.000000000000     0.000000000000     0.900000000000     1.007825032070

  Running in c2v symmetry.

  Rotational constants: A = ************  B =     73.74356  C =     73.74356 [cm^-1]
  Rotational constants: A = ************  B = 2210776.16654  C = 2210776.16654 [MHz]
  Nuclear repulsion =    1.111111111111111

  Charge       = 0
  Multiplicity = 1
  Electrons    = 2
  Nalpha       = 1
  Nbeta        = 1

  ==> Algorithm <==

  SCF Algorithm Type is DF.
  DIIS enabled.
  MOM disabled.
  Fractional occupation disabled.
  Guess Type is SAD.
  Energy threshold   = 1.00e-06
  Density threshold  = 1.00e-06
  Integral threshold = 0.00e+00

  ==> Primary Basis <==

  Basis Set: STO-3G
    Blend: STO-3G
    Number of shells: 2
    Number of basis function: 2
    Number of Cartesian functions: 2
    Spherical Harmonics?: true
    Max angular momentum: 0

   => Loading Basis Set <=

    Name: (STO-3G AUX)
    Role: JKFIT
    Keyword: DF_BASIS_SCF
    atoms 1-2 entry H          line    23 file /usr/local/psi4/share/psi4/basis/def2-svp-jkfit.gbs 

  ==> Pre-Iterations <==

   -------------------------------------------------------
    Irrep   Nso     Nmo     Nalpha   Nbeta   Ndocc  Nsocc
   -------------------------------------------------------
     A1         2       2       0       0       0       0
     A2         0       0       0       0       0       0
     B1         0       0       0       0       0       0
     B2         0       0       0       0       0       0
   -------------------------------------------------------
    Total       2       2       1       1       1       0
   -------------------------------------------------------

  ==> Integral Setup <==

  DFHelper Memory: AOs need 0.000 [GiB]; user supplied 0.366 [GiB]. Using in-core AOs.

  ==> MemDFJK: Density-Fitted J/K Matrices <==

    J tasked:                   Yes
    K tasked:                   Yes
    wK tasked:                   No
    OpenMP threads:               1
    Memory (MB):                375
    Algorithm:                 Core
    Schwarz Cutoff:           1E-12
    Mask sparsity (%):       0.0000
    Fitting Condition:        1E-12

   => Auxiliary Basis Set <=

  Basis Set: (STO-3G AUX)
    Blend: DEF2-SVP-JKFIT
    Number of shells: 12
    Number of basis function: 36
    Number of Cartesian functions: 40
    Spherical Harmonics?: true
    Max angular momentum: 2

  Minimum eigenvalue in the overlap matrix is 1.7080713241E-01.
  Using Symmetric Orthogonalization.

  SCF Guess: Superposition of Atomic Densities via on-the-fly atomic UHF.

  ==> Iterations <==

                           Total Energy        Delta E     RMS |[F,P]|

   @DF-RHF iter   0:    -0.73130941749726   -7.31309e-01   8.42682e-16 
   @DF-RHF iter   1:    -1.01952293183465   -2.88214e-01   2.80894e-16 
   @DF-RHF iter   2:    -1.01952293183465   -6.66134e-16   5.61788e-16 DIIS

  ==> Post-Iterations <==

    Orbital Energies [Eh]
    ---------------------

    Doubly Occupied:                                                      

       1A1    -0.703371  

    Virtual:                                                              

       2A1     1.028413  

    Final Occupation by Irrep:
             A1    A2    B1    B2 
    DOCC [     1,    0,    0,    0 ]

  Energy converged.

  @DF-RHF Final Energy:    -1.01952293183465

   => Energetics <=

    Nuclear Repulsion Energy =              1.1111111111111112
    One-Electron Energy =                  -2.8545266385794106
    Two-Electron Energy =                   0.7238925956336473
    PCM Polarization Energy =               0.0000000000000000
    Total Energy =                         -1.0195229318346521

    Alert: EFP and PCM quantities not currently incorporated into SCF psivars.

Properties will be evaluated at   0.000000,   0.000000,   0.000000 [a0]

Properties computed using the SCF density matrix

  Nuclear Dipole Moment: [e a0]
     X:     0.0000      Y:     0.0000      Z:     0.9000

  Electronic Dipole Moment: [e a0]
     X:     0.0000      Y:     0.0000      Z:    -0.9000

  Dipole Moment: [e a0]
     X:     0.0000      Y:     0.0000      Z:     0.0000     Total:     0.0000

  Dipole Moment: [D]
     X:     0.0000      Y:     0.0000      Z:     0.0000     Total:     0.0000


*** tstop() called on comp0002 at Thu Jul  4 15:56:04 2019
Module time:
	user time   =       0.45 seconds =       0.01 minutes
	system time =       0.54 seconds =       0.01 minutes
	total time  =          0 seconds =       0.00 minutes
Total time:
	user time   =       2.57 seconds =       0.04 minutes
	system time =       3.08 seconds =       0.05 minutes
	total time  =          2 seconds =       0.03 minutes
Molecule: Setting geometry variable R to 1.000000

*** tstart() called on comp0002
*** at Thu Jul  4 15:56:04 2019

   => Loading Basis Set <=

    Name: STO-3G
    Role: ORBITAL
    Keyword: BASIS
    atoms 1-2 entry H          line    19 file /usr/local/psi4/share/psi4/basis/sto-3g.gbs 


         ---------------------------------------------------------
                                   SCF
            by Justin Turney, Rob Parrish, Andy Simmonett
                             and Daniel Smith
                              RHF Reference
                        1 Threads,    500 MiB Core
         ---------------------------------------------------------

  ==> Geometry <==

    Molecular point group: c2v
    Full point group: C_inf_v

    Geometry (in Bohr), charge = 0, multiplicity = 1:

       Center              X                  Y                   Z               Mass       
    ------------   -----------------  -----------------  -----------------  -----------------
         H            0.000000000000     0.000000000000     0.000000000000     1.007825032070
         H            0.000000000000     0.000000000000     1.000000000000     1.007825032070

  Running in c2v symmetry.

  Rotational constants: A = ************  B =     59.73228  C =     59.73228 [cm^-1]
  Rotational constants: A = ************  B = 1790728.69490  C = 1790728.69490 [MHz]
  Nuclear repulsion =    1.000000000000000

  Charge       = 0
  Multiplicity = 1
  Electrons    = 2
  Nalpha       = 1
  Nbeta        = 1

  ==> Algorithm <==

  SCF Algorithm Type is DF.
  DIIS enabled.
  MOM disabled.
  Fractional occupation disabled.
  Guess Type is SAD.
  Energy threshold   = 1.00e-06
  Density threshold  = 1.00e-06
  Integral threshold = 0.00e+00

  ==> Primary Basis <==

  Basis Set: STO-3G
    Blend: STO-3G
    Number of shells: 2
    Number of basis function: 2
    Number of Cartesian functions: 2
    Spherical Harmonics?: true
    Max angular momentum: 0

   => Loading Basis Set <=

    Name: (STO-3G AUX)
    Role: JKFIT
    Keyword: DF_BASIS_SCF
    atoms 1-2 entry H          line    23 file /usr/local/psi4/share/psi4/basis/def2-svp-jkfit.gbs 

  ==> Pre-Iterations <==

   -------------------------------------------------------
    Irrep   Nso     Nmo     Nalpha   Nbeta   Ndocc  Nsocc
   -------------------------------------------------------
     A1         2       2       0       0       0       0
     A2         0       0       0       0       0       0
     B1         0       0       0       0       0       0
     B2         0       0       0       0       0       0
   -------------------------------------------------------
    Total       2       2       1       1       1       0
   -------------------------------------------------------

  ==> Integral Setup <==

  DFHelper Memory: AOs need 0.000 [GiB]; user supplied 0.366 [GiB]. Using in-core AOs.

  ==> MemDFJK: Density-Fitted J/K Matrices <==

    J tasked:                   Yes
    K tasked:                   Yes
    wK tasked:                   No
    OpenMP threads:               1
    Memory (MB):                375
    Algorithm:                 Core
    Schwarz Cutoff:           1E-12
    Mask sparsity (%):       0.0000
    Fitting Condition:        1E-12

   => Auxiliary Basis Set <=

  Basis Set: (STO-3G AUX)
    Blend: DEF2-SVP-JKFIT
    Number of shells: 12
    Number of basis function: 36
    Number of Cartesian functions: 40
    Spherical Harmonics?: true
    Max angular momentum: 2

  Minimum eigenvalue in the overlap matrix is 2.0341169930E-01.
  Using Symmetric Orthogonalization.

  SCF Guess: Superposition of Atomic Densities via on-the-fly atomic UHF.

  ==> Iterations <==

                           Total Energy        Delta E     RMS |[F,P]|

   @DF-RHF iter   0:    -0.74754630600377   -7.47546e-01   6.49311e-16 
   @DF-RHF iter   1:    -1.06602633710781   -3.18480e-01   1.29862e-16 
   @DF-RHF iter   2:    -1.06602633710781    1.11022e-15   0.00000e+00 DIIS

  ==> Post-Iterations <==

    Orbital Energies [Eh]
    ---------------------

    Doubly Occupied:                                                      

       1A1    -0.675807  

    Virtual:                                                              

       2A1     0.941561  

    Final Occupation by Irrep:
             A1    A2    B1    B2 
    DOCC [     1,    0,    0,    0 ]

  Energy converged.

  @DF-RHF Final Energy:    -1.06602633710781

   => Energetics <=

    Nuclear Repulsion Energy =              1.0000000000000000
    One-Electron Energy =                  -2.7804385411770189
    Two-Electron Energy =                   0.7144122040692070
    Total Energy =                         -1.0660263371078118



Properties will be evaluated at   0.000000,   0.000000,   0.000000 [a0]

Properties computed using the SCF density matrix

  Nuclear Dipole Moment: [e a0]
     X:     0.0000      Y:     0.0000      Z:     1.0000

  Electronic Dipole Moment: [e a0]
     X:     0.0000      Y:     0.0000      Z:    -1.0000

  Dipole Moment: [e a0]
     X:     0.0000      Y:     0.0000      Z:     0.0000     Total:     0.0000

  Dipole Moment: [D]
     X:     0.0000      Y:     0.0000      Z:     0.0000     Total:     0.0000


*** tstop() called on comp0002 at Thu Jul  4 15:56:04 2019
Module time:
	user time   =       0.50 seconds =       0.01 minutes
	system time =       0.56 seconds =       0.01 minutes
	total time  =          0 seconds =       0.00 minutes
Total time:
	user time   =       3.08 seconds =       0.05 minutes
	system time =       3.68 seconds =       0.06 minutes
	total time  =          2 seconds =       0.03 minutes
Molecule: Setting geometry variable R to 1.100000

*** tstart() called on comp0002
*** at Thu Jul  4 15:56:04 2019

   => Loading Basis Set <=

    Name: STO-3G
    Role: ORBITAL
    Keyword: BASIS
    atoms 1-2 entry H          line    19 file /usr/local/psi4/share/psi4/basis/sto-3g.gbs 


         ---------------------------------------------------------
                                   SCF
            by Justin Turney, Rob Parrish, Andy Simmonett
                             and Daniel Smith
                              RHF Reference
                        1 Threads,    500 MiB Core
         ---------------------------------------------------------

  ==> Geometry <==

    Molecular point group: c2v
    Full point group: C_inf_v

    Geometry (in Bohr), charge = 0, multiplicity = 1:

       Center              X                  Y                   Z               Mass       
    ------------   -----------------  -----------------  -----------------  -----------------
         H            0.000000000000     0.000000000000     0.000000000000     1.007825032070
         H            0.000000000000     0.000000000000     1.100000000000     1.007825032070

  Running in c2v symmetry.

  Rotational constants: A = ************  B =     49.36552  C =     49.36552 [cm^-1]
  Rotational constants: A = ************  B = 1479941.07016  C = 1479941.07016 [MHz]
  Nuclear repulsion =    0.909090909090909

  Charge       = 0
  Multiplicity = 1
  Electrons    = 2
  Nalpha       = 1
  Nbeta        = 1

  ==> Algorithm <==

  SCF Algorithm Type is DF.
  DIIS enabled.
  MOM disabled.
  Fractional occupation disabled.
  Guess Type is SAD.
  Energy threshold   = 1.00e-06
  Density threshold  = 1.00e-06
  Integral threshold = 0.00e+00

  ==> Primary Basis <==

  Basis Set: STO-3G
    Blend: STO-3G
    Number of shells: 2
    Number of basis function: 2
    Number of Cartesian functions: 2
    Spherical Harmonics?: true
    Max angular momentum: 0

   => Loading Basis Set <=

    Name: (STO-3G AUX)
    Role: JKFIT
    Keyword: DF_BASIS_SCF
    atoms 1-2 entry H          line    23 file /usr/local/psi4/share/psi4/basis/def2-svp-jkfit.gbs 

  ==> Pre-Iterations <==

   -------------------------------------------------------
    Irrep   Nso     Nmo     Nalpha   Nbeta   Ndocc  Nsocc
   -------------------------------------------------------
     A1         2       2       0       0       0       0
     A2         0       0       0       0       0       0
     B1         0       0       0       0       0       0
     B2         0       0       0       0       0       0
   -------------------------------------------------------
    Total       2       2       1       1       1       0
   -------------------------------------------------------

  ==> Integral Setup <==

  DFHelper Memory: AOs need 0.000 [GiB]; user supplied 0.366 [GiB]. Using in-core AOs.

  ==> MemDFJK: Density-Fitted J/K Matrices <==

    J tasked:                   Yes
    K tasked:                   Yes
    wK tasked:                   No
    OpenMP threads:               1
    Memory (MB):                375
    Algorithm:                 Core
    Schwarz Cutoff:           1E-12
    Mask sparsity (%):       0.0000
    Fitting Condition:        1E-12

   => Auxiliary Basis Set <=

  Basis Set: (STO-3G AUX)
    Blend: DEF2-SVP-JKFIT
    Number of shells: 12
    Number of basis function: 36
    Number of Cartesian functions: 40
    Spherical Harmonics?: true
    Max angular momentum: 2

  Minimum eigenvalue in the overlap matrix is 2.3704793115E-01.
  Using Symmetric Orthogonalization.

  SCF Guess: Superposition of Atomic Densities via on-the-fly atomic UHF.

  ==> Iterations <==

                           Total Energy        Delta E     RMS |[F,P]|

   @DF-RHF iter   0:    -0.75005483667182   -7.50055e-01   4.85755e-16 
   @DF-RHF iter   1:    -1.09459070014459   -3.44536e-01   2.42877e-16 
   @DF-RHF iter   2:    -1.09459070014459    2.22045e-16   1.21439e-16 DIIS

  ==> Post-Iterations <==

    Orbital Energies [Eh]
    ---------------------

    Doubly Occupied:                                                      

       1A1    -0.649512  

    Virtual:                                                              

       2A1     0.862721  

    Final Occupation by Irrep:
             A1    A2    B1    B2 
    DOCC [     1,    0,    0,    0 ]

  Energy converged.

  @DF-RHF Final Energy:    -1.09459070014459

   => Energetics <=

    Nuclear Repulsion Energy =              0.9090909090909091
    One-Electron Energy =                  -2.7083395477348162
    Two-Electron Energy =                   0.7046579384993172
    PCM Polarization Energy =               0.0000000000000000
    Total Energy =                         -1.0945907001445898

    Alert: EFP and PCM quantities not currently incorporated into SCF psivars.

Properties will be evaluated at   0.000000,   0.000000,   0.000000 [a0]

Properties computed using the SCF density matrix

  Nuclear Dipole Moment: [e a0]
     X:     0.0000      Y:     0.0000      Z:     1.1000

  Electronic Dipole Moment: [e a0]
     X:     0.0000      Y:     0.0000      Z:    -1.1000

  Dipole Moment: [e a0]
     X:     0.0000      Y:     0.0000      Z:     0.0000     Total:     0.0000

  Dipole Moment: [D]
     X:     0.0000      Y:     0.0000      Z:     0.0000     Total:     0.0000


*** tstop() called on comp0002 at Thu Jul  4 15:56:05 2019
Module time:
	user time   =       0.43 seconds =       0.01 minutes
	system time =       0.46 seconds =       0.01 minutes
	total time  =          1 seconds =       0.02 minutes
Total time:
	user time   =       3.52 seconds =       0.06 minutes
	system time =       4.18 seconds =       0.07 minutes
	total time  =          3 seconds =       0.05 minutes
Molecule: Setting geometry variable R to 1.200000

*** tstart() called on comp0002
*** at Thu Jul  4 15:56:05 2019

   => Loading Basis Set <=

    Name: STO-3G
    Role: ORBITAL
    Keyword: BASIS
    atoms 1-2 entry H          line    19 file /usr/local/psi4/share/psi4/basis/sto-3g.gbs 


         ---------------------------------------------------------
                                   SCF
            by Justin Turney, Rob Parrish, Andy Simmonett
                             and Daniel Smith
                              RHF Reference
                        1 Threads,    500 MiB Core
         ---------------------------------------------------------

  ==> Geometry <==

    Molecular point group: c2v
    Full point group: C_inf_v

    Geometry (in Bohr), charge = 0, multiplicity = 1:

       Center              X                  Y                   Z               Mass       
    ------------   -----------------  -----------------  -----------------  -----------------
         H            0.000000000000     0.000000000000     0.000000000000     1.007825032070
         H            0.000000000000     0.000000000000     1.200000000000     1.007825032070

  Running in c2v symmetry.

  Rotational constants: A = ************  B =     41.48075  C =     41.48075 [cm^-1]
  Rotational constants: A = ************  B = 1243561.59368  C = 1243561.59368 [MHz]
  Nuclear repulsion =    0.833333333333333

  Charge       = 0
  Multiplicity = 1
  Electrons    = 2
  Nalpha       = 1
  Nbeta        = 1

  ==> Algorithm <==

  SCF Algorithm Type is DF.
  DIIS enabled.
  MOM disabled.
  Fractional occupation disabled.
  Guess Type is SAD.
  Energy threshold   = 1.00e-06
  Density threshold  = 1.00e-06
  Integral threshold = 0.00e+00

  ==> Primary Basis <==

  Basis Set: STO-3G
    Blend: STO-3G
    Number of shells: 2
    Number of basis function: 2
    Number of Cartesian functions: 2
    Spherical Harmonics?: true
    Max angular momentum: 0

   => Loading Basis Set <=

    Name: (STO-3G AUX)
    Role: JKFIT
    Keyword: DF_BASIS_SCF
    atoms 1-2 entry H          line    23 file /usr/local/psi4/share/psi4/basis/def2-svp-jkfit.gbs 

  ==> Pre-Iterations <==

   -------------------------------------------------------
    Irrep   Nso     Nmo     Nalpha   Nbeta   Ndocc  Nsocc
   -------------------------------------------------------
     A1         2       2       0       0       0       0
     A2         0       0       0       0       0       0
     B1         0       0       0       0       0       0
     B2         0       0       0       0       0       0
   -------------------------------------------------------
    Total       2       2       1       1       1       0
   -------------------------------------------------------

  ==> Integral Setup <==

  DFHelper Memory: AOs need 0.000 [GiB]; user supplied 0.366 [GiB]. Using in-core AOs.

  ==> MemDFJK: Density-Fitted J/K Matrices <==

    J tasked:                   Yes
    K tasked:                   Yes
    wK tasked:                   No
    OpenMP threads:               1
    Memory (MB):                375
    Algorithm:                 Core
    Schwarz Cutoff:           1E-12
    Mask sparsity (%):       0.0000
    Fitting Condition:        1E-12

   => Auxiliary Basis Set <=

  Basis Set: (STO-3G AUX)
    Blend: DEF2-SVP-JKFIT
    Number of shells: 12
    Number of basis function: 36
    Number of Cartesian functions: 40
    Spherical Harmonics?: true
    Max angular momentum: 2

  Minimum eigenvalue in the overlap matrix is 2.7135062115E-01.
  Using Symmetric Orthogonalization.

  SCF Guess: Superposition of Atomic Densities via on-the-fly atomic UHF.

  ==> Iterations <==

                           Total Energy        Delta E     RMS |[F,P]|

   @DF-RHF iter   0:    -0.74392628039799   -7.43926e-01   8.59682e-16 
   @DF-RHF iter   1:    -1.11035954079984   -3.66433e-01   0.00000e+00 
   @DF-RHF iter   2:    -1.11035954079984    0.00000e+00   1.14624e-16 DIIS

  ==> Post-Iterations <==

    Orbital Energies [Eh]
    ---------------------

    Doubly Occupied:                                                      

       1A1    -0.624488  

    Virtual:                                                              

       2A1     0.791585  

    Final Occupation by Irrep:
             A1    A2    B1    B2 
    DOCC [     1,    0,    0,    0 ]

  Energy converged.

  @DF-RHF Final Energy:    -1.11035954079984

   => Energetics <=

    Nuclear Repulsion Energy =              0.8333333333333334
    One-Electron Energy =                  -2.6384104268390911
    Two-Electron Energy =                   0.6947175527059195
    PCM Polarization Energy =               0.0000000000000000
    Total Energy =                         -1.1103595407998381

    Alert: EFP and PCM quantities not currently incorporated into SCF psivars.

Properties will be evaluated at   0.000000,   0.000000,   0.000000 [a0]

Properties computed using the SCF density matrix

  Nuclear Dipole Moment: [e a0]
     X:     0.0000      Y:     0.0000      Z:     1.2000

  Electronic Dipole Moment: [e a0]
     X:     0.0000      Y:     0.0000      Z:    -1.2000

  Dipole Moment: [e a0]
     X:     0.0000      Y:     0.0000      Z:     0.0000     Total:     0.0000

  Dipole Moment: [D]
     X:     0.0000      Y:     0.0000      Z:     0.0000     Total:     0.0000


*** tstop() called on comp0002 at Thu Jul  4 15:56:05 2019
Module time:
	user time   =       0.48 seconds =       0.01 minutes
	system time =       0.52 seconds =       0.01 minutes
	total time  =          0 seconds =       0.00 minutes
Total time:
	user time   =       4.02 seconds =       0.07 minutes
	system time =       4.73 seconds =       0.08 minutes
	total time  =          3 seconds =       0.05 minutes
Molecule: Setting geometry variable R to 1.300000

*** tstart() called on comp0002
*** at Thu Jul  4 15:56:05 2019

   => Loading Basis Set <=

    Name: STO-3G
    Role: ORBITAL
    Keyword: BASIS
    atoms 1-2 entry H          line    19 file /usr/local/psi4/share/psi4/basis/sto-3g.gbs 


         ---------------------------------------------------------
                                   SCF
            by Justin Turney, Rob Parrish, Andy Simmonett
                             and Daniel Smith
                              RHF Reference
                        1 Threads,    500 MiB Core
         ---------------------------------------------------------

  ==> Geometry <==

    Molecular point group: c2v
    Full point group: C_inf_v

    Geometry (in Bohr), charge = 0, multiplicity = 1:

       Center              X                  Y                   Z               Mass       
    ------------   -----------------  -----------------  -----------------  -----------------
         H            0.000000000000     0.000000000000     0.000000000000     1.007825032070
         H            0.000000000000     0.000000000000     1.300000000000     1.007825032070

  Running in c2v symmetry.

  Rotational constants: A = ************  B =     35.34454  C =     35.34454 [cm^-1]
  Rotational constants: A = ************  B = 1059602.77805  C = 1059602.77805 [MHz]
  Nuclear repulsion =    0.769230769230769

  Charge       = 0
  Multiplicity = 1
  Electrons    = 2
  Nalpha       = 1
  Nbeta        = 1

  ==> Algorithm <==

  SCF Algorithm Type is DF.
  DIIS enabled.
  MOM disabled.
  Fractional occupation disabled.
  Guess Type is SAD.
  Energy threshold   = 1.00e-06
  Density threshold  = 1.00e-06
  Integral threshold = 0.00e+00

  ==> Primary Basis <==

  Basis Set: STO-3G
    Blend: STO-3G
    Number of shells: 2
    Number of basis function: 2
    Number of Cartesian functions: 2
    Spherical Harmonics?: true
    Max angular momentum: 0

   => Loading Basis Set <=

    Name: (STO-3G AUX)
    Role: JKFIT
    Keyword: DF_BASIS_SCF
    atoms 1-2 entry H          line    23 file /usr/local/psi4/share/psi4/basis/def2-svp-jkfit.gbs 

  ==> Pre-Iterations <==

   -------------------------------------------------------
    Irrep   Nso     Nmo     Nalpha   Nbeta   Ndocc  Nsocc
   -------------------------------------------------------
     A1         2       2       0       0       0       0
     A2         0       0       0       0       0       0
     B1         0       0       0       0       0       0
     B2         0       0       0       0       0       0
   -------------------------------------------------------
    Total       2       2       1       1       1       0
   -------------------------------------------------------

  ==> Integral Setup <==

  DFHelper Memory: AOs need 0.000 [GiB]; user supplied 0.366 [GiB]. Using in-core AOs.

  ==> MemDFJK: Density-Fitted J/K Matrices <==

    J tasked:                   Yes
    K tasked:                   Yes
    wK tasked:                   No
    OpenMP threads:               1
    Memory (MB):                375
    Algorithm:                 Core
    Schwarz Cutoff:           1E-12
    Mask sparsity (%):       0.0000
    Fitting Condition:        1E-12

   => Auxiliary Basis Set <=

  Basis Set: (STO-3G AUX)
    Blend: DEF2-SVP-JKFIT
    Number of shells: 12
    Number of basis function: 36
    Number of Cartesian functions: 40
    Spherical Harmonics?: true
    Max angular momentum: 2

  Minimum eigenvalue in the overlap matrix is 3.0599280323E-01.
  Using Symmetric Orthogonalization.

  SCF Guess: Superposition of Atomic Densities via on-the-fly atomic UHF.

  ==> Iterations <==

                           Total Energy        Delta E     RMS |[F,P]|

   @DF-RHF iter   0:    -0.73254097492115   -7.32541e-01   7.08754e-16 
   @DF-RHF iter   1:    -1.11689580193977   -3.84355e-01   1.09039e-16 
   @DF-RHF iter   2:    -1.11689580193977    0.00000e+00   1.09039e-16 DIIS

  ==> Post-Iterations <==

    Orbital Energies [Eh]
    ---------------------

    Doubly Occupied:                                                      

       1A1    -0.600730  

    Virtual:                                                              

       2A1     0.727603  

    Final Occupation by Irrep:
             A1    A2    B1    B2 
    DOCC [     1,    0,    0,    0 ]

  Energy converged.

  @DF-RHF Final Energy:    -1.11689580193977

   => Energetics <=

    Nuclear Repulsion Energy =              0.7692307692307692
    One-Electron Energy =                  -2.5707927009125013
    Two-Electron Energy =                   0.6846661297419578
    Total Energy =                         -1.1168958019397743



Properties will be evaluated at   0.000000,   0.000000,   0.000000 [a0]

Properties computed using the SCF density matrix

  Nuclear Dipole Moment: [e a0]
     X:     0.0000      Y:     0.0000      Z:     1.3000

  Electronic Dipole Moment: [e a0]
     X:     0.0000      Y:     0.0000      Z:    -1.3000

  Dipole Moment: [e a0]
     X:     0.0000      Y:     0.0000      Z:     0.0000     Total:     0.0000

  Dipole Moment: [D]
     X:     0.0000      Y:     0.0000      Z:     0.0000     Total:     0.0000


*** tstop() called on comp0002 at Thu Jul  4 15:56:05 2019
Module time:
	user time   =       0.47 seconds =       0.01 minutes
	system time =       0.47 seconds =       0.01 minutes
	total time  =          0 seconds =       0.00 minutes
Total time:
	user time   =       4.52 seconds =       0.08 minutes
	system time =       5.23 seconds =       0.09 minutes
	total time  =          3 seconds =       0.05 minutes
Molecule: Setting geometry variable R to 1.400000

*** tstart() called on comp0002
*** at Thu Jul  4 15:56:05 2019

   => Loading Basis Set <=

    Name: STO-3G
    Role: ORBITAL
    Keyword: BASIS
    atoms 1-2 entry H          line    19 file /usr/local/psi4/share/psi4/basis/sto-3g.gbs 


         ---------------------------------------------------------
                                   SCF
            by Justin Turney, Rob Parrish, Andy Simmonett
                             and Daniel Smith
                              RHF Reference
                        1 Threads,    500 MiB Core
         ---------------------------------------------------------

  ==> Geometry <==

    Molecular point group: c2v
    Full point group: C_inf_v

    Geometry (in Bohr), charge = 0, multiplicity = 1:

       Center              X                  Y                   Z               Mass       
    ------------   -----------------  -----------------  -----------------  -----------------
         H            0.000000000000     0.000000000000     0.000000000000     1.007825032070
         H            0.000000000000     0.000000000000     1.400000000000     1.007825032070

  Running in c2v symmetry.

  Rotational constants: A = ************  B =     30.47565  C =     30.47565 [cm^-1]
  Rotational constants: A = ************  B = 913637.08923  C = 913637.08923 [MHz]
  Nuclear repulsion =    0.714285714285714

  Charge       = 0
  Multiplicity = 1
  Electrons    = 2
  Nalpha       = 1
  Nbeta        = 1

  ==> Algorithm <==

  SCF Algorithm Type is DF.
  DIIS enabled.
  MOM disabled.
  Fractional occupation disabled.
  Guess Type is SAD.
  Energy threshold   = 1.00e-06
  Density threshold  = 1.00e-06
  Integral threshold = 0.00e+00

  ==> Primary Basis <==

  Basis Set: STO-3G
    Blend: STO-3G
    Number of shells: 2
    Number of basis function: 2
    Number of Cartesian functions: 2
    Spherical Harmonics?: true
    Max angular momentum: 0

   => Loading Basis Set <=

    Name: (STO-3G AUX)
    Role: JKFIT
    Keyword: DF_BASIS_SCF
    atoms 1-2 entry H          line    23 file /usr/local/psi4/share/psi4/basis/def2-svp-jkfit.gbs 

  ==> Pre-Iterations <==

   -------------------------------------------------------
    Irrep   Nso     Nmo     Nalpha   Nbeta   Ndocc  Nsocc
   -------------------------------------------------------
     A1         2       2       0       0       0       0
     A2         0       0       0       0       0       0
     B1         0       0       0       0       0       0
     B2         0       0       0       0       0       0
   -------------------------------------------------------
    Total       2       2       1       1       1       0
   -------------------------------------------------------

  ==> Integral Setup <==

  DFHelper Memory: AOs need 0.000 [GiB]; user supplied 0.366 [GiB]. Using in-core AOs.

  ==> MemDFJK: Density-Fitted J/K Matrices <==

    J tasked:                   Yes
    K tasked:                   Yes
    wK tasked:                   No
    OpenMP threads:               1
    Memory (MB):                375
    Algorithm:                 Core
    Schwarz Cutoff:           1E-12
    Mask sparsity (%):       0.0000
    Fitting Condition:        1E-12

   => Auxiliary Basis Set <=

  Basis Set: (STO-3G AUX)
    Blend: DEF2-SVP-JKFIT
    Number of shells: 12
    Number of basis function: 36
    Number of Cartesian functions: 40
    Spherical Harmonics?: true
    Max angular momentum: 2

  Minimum eigenvalue in the overlap matrix is 3.4068179387E-01.
  Using Symmetric Orthogonalization.

  SCF Guess: Superposition of Atomic Densities via on-the-fly atomic UHF.

  ==> Iterations <==

                           Total Energy        Delta E     RMS |[F,P]|

   @DF-RHF iter   0:    -0.71819305754588   -7.18193e-01   4.17653e-16 
   @DF-RHF iter   1:    -1.11673832869091   -3.98545e-01   2.61033e-16 
   @DF-RHF iter   2:    -1.11673832869091   -2.22045e-16   2.08827e-16 DIIS

  ==> Post-Iterations <==

    Orbital Energies [Eh]
    ---------------------

    Doubly Occupied:                                                      

       1A1    -0.578227  

    Virtual:                                                              

       2A1     0.670075  

    Final Occupation by Irrep:
             A1    A2    B1    B2 
    DOCC [     1,    0,    0,    0 ]

  Energy converged.

  @DF-RHF Final Energy:    -1.11673832869091

   => Energetics <=

    Nuclear Repulsion Energy =              0.7142857142857143
    One-Electron Energy =                  -2.5055941236716519
    Two-Electron Energy =                   0.6745700806950301
    Total Energy =                         -1.1167383286909074



Properties will be evaluated at   0.000000,   0.000000,   0.000000 [a0]

Properties computed using the SCF density matrix

  Nuclear Dipole Moment: [e a0]
     X:     0.0000      Y:     0.0000      Z:     1.4000

  Electronic Dipole Moment: [e a0]
     X:     0.0000      Y:     0.0000      Z:    -1.4000

  Dipole Moment: [e a0]
     X:     0.0000      Y:     0.0000      Z:     0.0000     Total:     0.0000

  Dipole Moment: [D]
     X:     0.0000      Y:     0.0000      Z:     0.0000     Total:     0.0000


*** tstop() called on comp0002 at Thu Jul  4 15:56:06 2019
Module time:
	user time   =       0.49 seconds =       0.01 minutes
	system time =       0.46 seconds =       0.01 minutes
	total time  =          1 seconds =       0.02 minutes
Total time:
	user time   =       5.03 seconds =       0.08 minutes
	system time =       5.72 seconds =       0.10 minutes
	total time  =          4 seconds =       0.07 minutes
Molecule: Setting geometry variable R to 1.500000

*** tstart() called on comp0002
*** at Thu Jul  4 15:56:06 2019

   => Loading Basis Set <=

    Name: STO-3G
    Role: ORBITAL
    Keyword: BASIS
    atoms 1-2 entry H          line    19 file /usr/local/psi4/share/psi4/basis/sto-3g.gbs 


         ---------------------------------------------------------
                                   SCF
            by Justin Turney, Rob Parrish, Andy Simmonett
                             and Daniel Smith
                              RHF Reference
                        1 Threads,    500 MiB Core
         ---------------------------------------------------------

  ==> Geometry <==

    Molecular point group: c2v
    Full point group: C_inf_v

    Geometry (in Bohr), charge = 0, multiplicity = 1:

       Center              X                  Y                   Z               Mass       
    ------------   -----------------  -----------------  -----------------  -----------------
         H            0.000000000000     0.000000000000     0.000000000000     1.007825032070
         H            0.000000000000     0.000000000000     1.500000000000     1.007825032070

  Running in c2v symmetry.

  Rotational constants: A = ************  B =     26.54768  C =     26.54768 [cm^-1]
  Rotational constants: A = ************  B = 795879.41995  C = 795879.41995 [MHz]
  Nuclear repulsion =    0.666666666666667

  Charge       = 0
  Multiplicity = 1
  Electrons    = 2
  Nalpha       = 1
  Nbeta        = 1

  ==> Algorithm <==

  SCF Algorithm Type is DF.
  DIIS enabled.
  MOM disabled.
  Fractional occupation disabled.
  Guess Type is SAD.
  Energy threshold   = 1.00e-06
  Density threshold  = 1.00e-06
  Integral threshold = 0.00e+00

  ==> Primary Basis <==

  Basis Set: STO-3G
    Blend: STO-3G
    Number of shells: 2
    Number of basis function: 2
    Number of Cartesian functions: 2
    Spherical Harmonics?: true
    Max angular momentum: 0

   => Loading Basis Set <=

    Name: (STO-3G AUX)
    Role: JKFIT
    Keyword: DF_BASIS_SCF
    atoms 1-2 entry H          line    23 file /usr/local/psi4/share/psi4/basis/def2-svp-jkfit.gbs 

  ==> Pre-Iterations <==

   -------------------------------------------------------
    Irrep   Nso     Nmo     Nalpha   Nbeta   Ndocc  Nsocc
   -------------------------------------------------------
     A1         2       2       0       0       0       0
     A2         0       0       0       0       0       0
     B1         0       0       0       0       0       0
     B2         0       0       0       0       0       0
   -------------------------------------------------------
    Total       2       2       1       1       1       0
   -------------------------------------------------------

  ==> Integral Setup <==

  DFHelper Memory: AOs need 0.000 [GiB]; user supplied 0.366 [GiB]. Using in-core AOs.

  ==> MemDFJK: Density-Fitted J/K Matrices <==

    J tasked:                   Yes
    K tasked:                   Yes
    wK tasked:                   No
    OpenMP threads:               1
    Memory (MB):                375
    Algorithm:                 Core
    Schwarz Cutoff:           1E-12
    Mask sparsity (%):       0.0000
    Fitting Condition:        1E-12

   => Auxiliary Basis Set <=

  Basis Set: (STO-3G AUX)
    Blend: DEF2-SVP-JKFIT
    Number of shells: 12
    Number of basis function: 36
    Number of Cartesian functions: 40
    Spherical Harmonics?: true
    Max angular momentum: 2

  Minimum eigenvalue in the overlap matrix is 3.7515623104E-01.
  Using Symmetric Orthogonalization.

  SCF Guess: Superposition of Atomic Densities via on-the-fly atomic UHF.

  ==> Iterations <==

                           Total Energy        Delta E     RMS |[F,P]|

   @DF-RHF iter   0:    -0.70245346160912   -7.02453e-01   0.00000e+00 
   @DF-RHF iter   1:    -1.11171971229347   -4.09266e-01   4.02201e-16 
   @DF-RHF iter   2:    -1.11171971229347   -4.44089e-16   1.00550e-16 DIIS

  ==> Post-Iterations <==

    Orbital Energies [Eh]
    ---------------------

    Doubly Occupied:                                                      

       1A1    -0.556948  

    Virtual:                                                              

       2A1     0.618241  

    Final Occupation by Irrep:
             A1    A2    B1    B2 
    DOCC [     1,    0,    0,    0 ]

  Energy converged.

  @DF-RHF Final Energy:    -1.11171971229347

   => Energetics <=

    Nuclear Repulsion Energy =              0.6666666666666666
    One-Electron Energy =                  -2.4428764829334075
    Two-Electron Energy =                   0.6644901039732660
    Total Energy =                         -1.1117197122934750



Properties will be evaluated at   0.000000,   0.000000,   0.000000 [a0]

Properties computed using the SCF density matrix

  Nuclear Dipole Moment: [e a0]
     X:     0.0000      Y:     0.0000      Z:     1.5000

  Electronic Dipole Moment: [e a0]
     X:     0.0000      Y:     0.0000      Z:    -1.5000

  Dipole Moment: [e a0]
     X:     0.0000      Y:     0.0000      Z:     0.0000     Total:     0.0000

  Dipole Moment: [D]
     X:     0.0000      Y:     0.0000      Z:     0.0000     Total:     0.0000


*** tstop() called on comp0002 at Thu Jul  4 15:56:06 2019
Module time:
	user time   =       0.49 seconds =       0.01 minutes
	system time =       0.48 seconds =       0.01 minutes
	total time  =          0 seconds =       0.00 minutes
Total time:
	user time   =       5.53 seconds =       0.09 minutes
	system time =       6.24 seconds =       0.10 minutes
	total time  =          4 seconds =       0.07 minutes
Molecule: Setting geometry variable R to 1.600000

*** tstart() called on comp0002
*** at Thu Jul  4 15:56:06 2019

   => Loading Basis Set <=

    Name: STO-3G
    Role: ORBITAL
    Keyword: BASIS
    atoms 1-2 entry H          line    19 file /usr/local/psi4/share/psi4/basis/sto-3g.gbs 


         ---------------------------------------------------------
                                   SCF
            by Justin Turney, Rob Parrish, Andy Simmonett
                             and Daniel Smith
                              RHF Reference
                        1 Threads,    500 MiB Core
         ---------------------------------------------------------

  ==> Geometry <==

    Molecular point group: c2v
    Full point group: C_inf_v

    Geometry (in Bohr), charge = 0, multiplicity = 1:

       Center              X                  Y                   Z               Mass       
    ------------   -----------------  -----------------  -----------------  -----------------
         H            0.000000000000     0.000000000000     0.000000000000     1.007825032070
         H            0.000000000000     0.000000000000     1.600000000000     1.007825032070

  Running in c2v symmetry.

  Rotational constants: A = ************  B =     23.33292  C =     23.33292 [cm^-1]
  Rotational constants: A = ************  B = 699503.39644  C = 699503.39644 [MHz]
  Nuclear repulsion =    0.625000000000000

  Charge       = 0
  Multiplicity = 1
  Electrons    = 2
  Nalpha       = 1
  Nbeta        = 1

  ==> Algorithm <==

  SCF Algorithm Type is DF.
  DIIS enabled.
  MOM disabled.
  Fractional occupation disabled.
  Guess Type is SAD.
  Energy threshold   = 1.00e-06
  Density threshold  = 1.00e-06
  Integral threshold = 0.00e+00

  ==> Primary Basis <==

  Basis Set: STO-3G
    Blend: STO-3G
    Number of shells: 2
    Number of basis function: 2
    Number of Cartesian functions: 2
    Spherical Harmonics?: true
    Max angular momentum: 0

   => Loading Basis Set <=

    Name: (STO-3G AUX)
    Role: JKFIT
    Keyword: DF_BASIS_SCF
    atoms 1-2 entry H          line    23 file /usr/local/psi4/share/psi4/basis/def2-svp-jkfit.gbs 

  ==> Pre-Iterations <==

   -------------------------------------------------------
    Irrep   Nso     Nmo     Nalpha   Nbeta   Ndocc  Nsocc
   -------------------------------------------------------
     A1         2       2       0       0       0       0
     A2         0       0       0       0       0       0
     B1         0       0       0       0       0       0
     B2         0       0       0       0       0       0
   -------------------------------------------------------
    Total       2       2       1       1       1       0
   -------------------------------------------------------

  ==> Integral Setup <==

  DFHelper Memory: AOs need 0.000 [GiB]; user supplied 0.366 [GiB]. Using in-core AOs.

  ==> MemDFJK: Density-Fitted J/K Matrices <==

    J tasked:                   Yes
    K tasked:                   Yes
    wK tasked:                   No
    OpenMP threads:               1
    Memory (MB):                375
    Algorithm:                 Core
    Schwarz Cutoff:           1E-12
    Mask sparsity (%):       0.0000
    Fitting Condition:        1E-12

   => Auxiliary Basis Set <=

  Basis Set: (STO-3G AUX)
    Blend: DEF2-SVP-JKFIT
    Number of shells: 12
    Number of basis function: 36
    Number of Cartesian functions: 40
    Spherical Harmonics?: true
    Max angular momentum: 2

  Minimum eigenvalue in the overlap matrix is 4.0918445826E-01.
  Using Symmetric Orthogonalization.

  SCF Guess: Superposition of Atomic Densities via on-the-fly atomic UHF.

  ==> Iterations <==

                           Total Energy        Delta E     RMS |[F,P]|

   @DF-RHF iter   0:    -0.68639122091910   -6.86391e-01   5.83817e-16 
   @DF-RHF iter   1:    -1.10316503838888   -4.16774e-01   1.94606e-16 
   @DF-RHF iter   2:    -1.10316503838888    0.00000e+00   2.43257e-16 DIIS

  ==> Post-Iterations <==

    Orbital Energies [Eh]
    ---------------------

    Doubly Occupied:                                                      

       1A1    -0.536841  

    Virtual:                                                              

       2A1     0.571349  

    Final Occupation by Irrep:
             A1    A2    B1    B2 
    DOCC [     1,    0,    0,    0 ]

  Energy converged.

  @DF-RHF Final Energy:    -1.10316503838888

   => Energetics <=

    Nuclear Repulsion Energy =              0.6250000000000000
    One-Electron Energy =                  -2.3826479492067847
    Two-Electron Energy =                   0.6544829108179040
    PCM Polarization Energy =               0.0000000000000000
    Total Energy =                         -1.1031650383888807

    Alert: EFP and PCM quantities not currently incorporated into SCF psivars.

Properties will be evaluated at   0.000000,   0.000000,   0.000000 [a0]

Properties computed using the SCF density matrix

  Nuclear Dipole Moment: [e a0]
     X:     0.0000      Y:     0.0000      Z:     1.6000

  Electronic Dipole Moment: [e a0]
     X:     0.0000      Y:     0.0000      Z:    -1.6000

  Dipole Moment: [e a0]
     X:     0.0000      Y:     0.0000      Z:    -0.0000     Total:     0.0000

  Dipole Moment: [D]
     X:     0.0000      Y:     0.0000      Z:    -0.0000     Total:     0.0000


*** tstop() called on comp0002 at Thu Jul  4 15:56:06 2019
Module time:
	user time   =       0.48 seconds =       0.01 minutes
	system time =       0.54 seconds =       0.01 minutes
	total time  =          0 seconds =       0.00 minutes
Total time:
	user time   =       6.03 seconds =       0.10 minutes
	system time =       6.82 seconds =       0.11 minutes
	total time  =          4 seconds =       0.07 minutes
Molecule: Setting geometry variable R to 2.000000

*** tstart() called on comp0002
*** at Thu Jul  4 15:56:06 2019

   => Loading Basis Set <=

    Name: STO-3G
    Role: ORBITAL
    Keyword: BASIS
    atoms 1-2 entry H          line    19 file /usr/local/psi4/share/psi4/basis/sto-3g.gbs 


         ---------------------------------------------------------
                                   SCF
            by Justin Turney, Rob Parrish, Andy Simmonett
                             and Daniel Smith
                              RHF Reference
                        1 Threads,    500 MiB Core
         ---------------------------------------------------------

  ==> Geometry <==

    Molecular point group: c2v
    Full point group: C_inf_v

    Geometry (in Bohr), charge = 0, multiplicity = 1:

       Center              X                  Y                   Z               Mass       
    ------------   -----------------  -----------------  -----------------  -----------------
         H            0.000000000000     0.000000000000     0.000000000000     1.007825032070
         H            0.000000000000     0.000000000000     2.000000000000     1.007825032070

  Running in c2v symmetry.

  Rotational constants: A = ************  B =     14.93307  C =     14.93307 [cm^-1]
  Rotational constants: A = ************  B = 447682.17372  C = 447682.17372 [MHz]
  Nuclear repulsion =    0.500000000000000

  Charge       = 0
  Multiplicity = 1
  Electrons    = 2
  Nalpha       = 1
  Nbeta        = 1

  ==> Algorithm <==

  SCF Algorithm Type is DF.
  DIIS enabled.
  MOM disabled.
  Fractional occupation disabled.
  Guess Type is SAD.
  Energy threshold   = 1.00e-06
  Density threshold  = 1.00e-06
  Integral threshold = 0.00e+00

  ==> Primary Basis <==

  Basis Set: STO-3G
    Blend: STO-3G
    Number of shells: 2
    Number of basis function: 2
    Number of Cartesian functions: 2
    Spherical Harmonics?: true
    Max angular momentum: 0

   => Loading Basis Set <=

    Name: (STO-3G AUX)
    Role: JKFIT
    Keyword: DF_BASIS_SCF
    atoms 1-2 entry H          line    23 file /usr/local/psi4/share/psi4/basis/def2-svp-jkfit.gbs 

  ==> Pre-Iterations <==

   -------------------------------------------------------
    Irrep   Nso     Nmo     Nalpha   Nbeta   Ndocc  Nsocc
   -------------------------------------------------------
     A1         2       2       0       0       0       0
     A2         0       0       0       0       0       0
     B1         0       0       0       0       0       0
     B2         0       0       0       0       0       0
   -------------------------------------------------------
    Total       2       2       1       1       1       0
   -------------------------------------------------------

  ==> Integral Setup <==

  DFHelper Memory: AOs need 0.000 [GiB]; user supplied 0.366 [GiB]. Using in-core AOs.

  ==> MemDFJK: Density-Fitted J/K Matrices <==

    J tasked:                   Yes
    K tasked:                   Yes
    wK tasked:                   No
    OpenMP threads:               1
    Memory (MB):                375
    Algorithm:                 Core
    Schwarz Cutoff:           1E-12
    Mask sparsity (%):       0.0000
    Fitting Condition:        1E-12

   => Auxiliary Basis Set <=

  Basis Set: (STO-3G AUX)
    Blend: DEF2-SVP-JKFIT
    Number of shells: 12
    Number of basis function: 36
    Number of Cartesian functions: 40
    Spherical Harmonics?: true
    Max angular momentum: 2

  Minimum eigenvalue in the overlap matrix is 5.3722230457E-01.
  Using Symmetric Orthogonalization.

  SCF Guess: Superposition of Atomic Densities via on-the-fly atomic UHF.

  ==> Iterations <==

                           Total Energy        Delta E     RMS |[F,P]|

   @DF-RHF iter   0:    -0.62965401079291   -6.29654e-01   3.32093e-16 
   @DF-RHF iter   1:    -1.04920024078890   -4.19546e-01   8.85583e-17 
   @DF-RHF iter   2:    -1.04920024078890   -6.66134e-16   8.85583e-17 DIIS

  ==> Post-Iterations <==

    Orbital Energies [Eh]
    ---------------------

    Doubly Occupied:                                                      

       1A1    -0.466505  

    Virtual:                                                              

       2A1     0.420950  

    Final Occupation by Irrep:
             A1    A2    B1    B2 
    DOCC [     1,    0,    0,    0 ]

  Energy converged.

  @DF-RHF Final Energy:    -1.04920024078890

   => Energetics <=

    Nuclear Repulsion Energy =              0.5000000000000000
    One-Electron Energy =                  -2.1653907362188276
    Two-Electron Energy =                   0.6161904954299251
    Total Energy =                         -1.0492002407889025



Properties will be evaluated at   0.000000,   0.000000,   0.000000 [a0]

Properties computed using the SCF density matrix

  Nuclear Dipole Moment: [e a0]
     X:     0.0000      Y:     0.0000      Z:     2.0000

  Electronic Dipole Moment: [e a0]
     X:     0.0000      Y:     0.0000      Z:    -2.0000

  Dipole Moment: [e a0]
     X:     0.0000      Y:     0.0000      Z:    -0.0000     Total:     0.0000

  Dipole Moment: [D]
     X:     0.0000      Y:     0.0000      Z:    -0.0000     Total:     0.0000


*** tstop() called on comp0002 at Thu Jul  4 15:56:07 2019
Module time:
	user time   =       0.59 seconds =       0.01 minutes
	system time =       0.67 seconds =       0.01 minutes
	total time  =          1 seconds =       0.02 minutes
Total time:
	user time   =       6.64 seconds =       0.11 minutes
	system time =       7.52 seconds =       0.13 minutes
	total time  =          5 seconds =       0.08 minutes
Molecule: Setting geometry variable R to 3.000000

*** tstart() called on comp0002
*** at Thu Jul  4 15:56:07 2019

   => Loading Basis Set <=

    Name: STO-3G
    Role: ORBITAL
    Keyword: BASIS
    atoms 1-2 entry H          line    19 file /usr/local/psi4/share/psi4/basis/sto-3g.gbs 


         ---------------------------------------------------------
                                   SCF
            by Justin Turney, Rob Parrish, Andy Simmonett
                             and Daniel Smith
                              RHF Reference
                        1 Threads,    500 MiB Core
         ---------------------------------------------------------

  ==> Geometry <==

    Molecular point group: c2v
    Full point group: C_inf_v

    Geometry (in Bohr), charge = 0, multiplicity = 1:

       Center              X                  Y                   Z               Mass       
    ------------   -----------------  -----------------  -----------------  -----------------
         H            0.000000000000     0.000000000000     0.000000000000     1.007825032070
         H            0.000000000000     0.000000000000     3.000000000000     1.007825032070

  Running in c2v symmetry.

  Rotational constants: A = ************  B =      6.63692  C =      6.63692 [cm^-1]
  Rotational constants: A = ************  B = 198969.85499  C = 198969.85499 [MHz]
  Nuclear repulsion =    0.333333333333333

  Charge       = 0
  Multiplicity = 1
  Electrons    = 2
  Nalpha       = 1
  Nbeta        = 1

  ==> Algorithm <==

  SCF Algorithm Type is DF.
  DIIS enabled.
  MOM disabled.
  Fractional occupation disabled.
  Guess Type is SAD.
  Energy threshold   = 1.00e-06
  Density threshold  = 1.00e-06
  Integral threshold = 0.00e+00

  ==> Primary Basis <==

  Basis Set: STO-3G
    Blend: STO-3G
    Number of shells: 2
    Number of basis function: 2
    Number of Cartesian functions: 2
    Spherical Harmonics?: true
    Max angular momentum: 0

   => Loading Basis Set <=

    Name: (STO-3G AUX)
    Role: JKFIT
    Keyword: DF_BASIS_SCF
    atoms 1-2 entry H          line    23 file /usr/local/psi4/share/psi4/basis/def2-svp-jkfit.gbs 

  ==> Pre-Iterations <==

   -------------------------------------------------------
    Irrep   Nso     Nmo     Nalpha   Nbeta   Ndocc  Nsocc
   -------------------------------------------------------
     A1         2       2       0       0       0       0
     A2         0       0       0       0       0       0
     B1         0       0       0       0       0       0
     B2         0       0       0       0       0       0
   -------------------------------------------------------
    Total       2       2       1       1       1       0
   -------------------------------------------------------

  ==> Integral Setup <==

  DFHelper Memory: AOs need 0.000 [GiB]; user supplied 0.366 [GiB]. Using in-core AOs.

  ==> MemDFJK: Density-Fitted J/K Matrices <==

    J tasked:                   Yes
    K tasked:                   Yes
    wK tasked:                   No
    OpenMP threads:               1
    Memory (MB):                375
    Algorithm:                 Core
    Schwarz Cutoff:           1E-12
    Mask sparsity (%):       0.0000
    Fitting Condition:        1E-12

   => Auxiliary Basis Set <=

  Basis Set: (STO-3G AUX)
    Blend: DEF2-SVP-JKFIT
    Number of shells: 12
    Number of basis function: 36
    Number of Cartesian functions: 40
    Spherical Harmonics?: true
    Max angular momentum: 2

  Minimum eigenvalue in the overlap matrix is 7.7381035230E-01.
  Using Symmetric Orthogonalization.

  SCF Guess: Superposition of Atomic Densities via on-the-fly atomic UHF.

  ==> Iterations <==

                           Total Energy        Delta E     RMS |[F,P]|

   @DF-RHF iter   0:    -0.56327997283351   -5.63280e-01   1.41038e-16 
   @DF-RHF iter   1:    -0.88536152511256   -3.22082e-01   9.26823e-16 
   @DF-RHF iter   2:    -0.88536152511256    1.11022e-16   1.20890e-16 DIIS

  ==> Post-Iterations <==

    Orbital Energies [Eh]
    ---------------------

    Doubly Occupied:                                                      

       1A1    -0.337812  

    Virtual:                                                              

       2A1     0.198089  

    Final Occupation by Irrep:
             A1    A2    B1    B2 
    DOCC [     1,    0,    0,    0 ]

  Energy converged.

  @DF-RHF Final Energy:    -0.88536152511256

   => Energetics <=

    Nuclear Repulsion Energy =              0.3333333333333333
    One-Electron Energy =                  -1.7617664438224194
    Two-Electron Energy =                   0.5430715853765217
    Total Energy =                         -0.8853615251125645



Properties will be evaluated at   0.000000,   0.000000,   0.000000 [a0]

Properties computed using the SCF density matrix

  Nuclear Dipole Moment: [e a0]
     X:     0.0000      Y:     0.0000      Z:     3.0000

  Electronic Dipole Moment: [e a0]
     X:     0.0000      Y:     0.0000      Z:    -3.0000

  Dipole Moment: [e a0]
     X:     0.0000      Y:     0.0000      Z:    -0.0000     Total:     0.0000

  Dipole Moment: [D]
     X:     0.0000      Y:     0.0000      Z:    -0.0000     Total:     0.0000


*** tstop() called on comp0002 at Thu Jul  4 15:56:07 2019
Module time:
	user time   =       0.42 seconds =       0.01 minutes
	system time =       0.34 seconds =       0.01 minutes
	total time  =          0 seconds =       0.00 minutes
Total time:
	user time   =       7.06 seconds =       0.12 minutes
	system time =       7.86 seconds =       0.13 minutes
	total time  =          5 seconds =       0.08 minutes
Molecule: Setting geometry variable R to 4.000000

*** tstart() called on comp0002
*** at Thu Jul  4 15:56:07 2019

   => Loading Basis Set <=

    Name: STO-3G
    Role: ORBITAL
    Keyword: BASIS
    atoms 1-2 entry H          line    19 file /usr/local/psi4/share/psi4/basis/sto-3g.gbs 


         ---------------------------------------------------------
                                   SCF
            by Justin Turney, Rob Parrish, Andy Simmonett
                             and Daniel Smith
                              RHF Reference
                        1 Threads,    500 MiB Core
         ---------------------------------------------------------

  ==> Geometry <==

    Molecular point group: c2v
    Full point group: C_inf_v

    Geometry (in Bohr), charge = 0, multiplicity = 1:

       Center              X                  Y                   Z               Mass       
    ------------   -----------------  -----------------  -----------------  -----------------
         H            0.000000000000     0.000000000000     0.000000000000     1.007825032070
         H            0.000000000000     0.000000000000     4.000000000000     1.007825032070

  Running in c2v symmetry.

  Rotational constants: A = ************  B =      3.73327  C =      3.73327 [cm^-1]
  Rotational constants: A = ************  B = 111920.54343  C = 111920.54343 [MHz]
  Nuclear repulsion =    0.250000000000000

  Charge       = 0
  Multiplicity = 1
  Electrons    = 2
  Nalpha       = 1
  Nbeta        = 1

  ==> Algorithm <==

  SCF Algorithm Type is DF.
  DIIS enabled.
  MOM disabled.
  Fractional occupation disabled.
  Guess Type is SAD.
  Energy threshold   = 1.00e-06
  Density threshold  = 1.00e-06
  Integral threshold = 0.00e+00

  ==> Primary Basis <==

  Basis Set: STO-3G
    Blend: STO-3G
    Number of shells: 2
    Number of basis function: 2
    Number of Cartesian functions: 2
    Spherical Harmonics?: true
    Max angular momentum: 0

   => Loading Basis Set <=

    Name: (STO-3G AUX)
    Role: JKFIT
    Keyword: DF_BASIS_SCF
    atoms 1-2 entry H          line    23 file /usr/local/psi4/share/psi4/basis/def2-svp-jkfit.gbs 

  ==> Pre-Iterations <==

   -------------------------------------------------------
    Irrep   Nso     Nmo     Nalpha   Nbeta   Ndocc  Nsocc
   -------------------------------------------------------
     A1         2       2       0       0       0       0
     A2         0       0       0       0       0       0
     B1         0       0       0       0       0       0
     B2         0       0       0       0       0       0
   -------------------------------------------------------
    Total       2       2       1       1       1       0
   -------------------------------------------------------

  ==> Integral Setup <==

  DFHelper Memory: AOs need 0.000 [GiB]; user supplied 0.366 [GiB]. Using in-core AOs.

  ==> MemDFJK: Density-Fitted J/K Matrices <==

    J tasked:                   Yes
    K tasked:                   Yes
    wK tasked:                   No
    OpenMP threads:               1
    Memory (MB):                375
    Algorithm:                 Core
    Schwarz Cutoff:           1E-12
    Mask sparsity (%):       0.0000
    Fitting Condition:        1E-12

   => Auxiliary Basis Set <=

  Basis Set: (STO-3G AUX)
    Blend: DEF2-SVP-JKFIT
    Number of shells: 12
    Number of basis function: 36
    Number of Cartesian functions: 40
    Spherical Harmonics?: true
    Max angular momentum: 2

  Minimum eigenvalue in the overlap matrix is 9.0186704930E-01.
  Using Symmetric Orthogonalization.

  SCF Guess: Superposition of Atomic Densities via on-the-fly atomic UHF.

  ==> Iterations <==

                           Total Energy        Delta E     RMS |[F,P]|

   @DF-RHF iter   0:    -0.54889146015072   -5.48891e-01   9.86067e-18 
   @DF-RHF iter   1:    -0.76120169634891   -2.12310e-01   4.14148e-16 
   @DF-RHF iter   2:    -0.76120169634891    3.33067e-16   3.15542e-16 DIIS

  ==> Post-Iterations <==

    Orbital Energies [Eh]
    ---------------------

    Doubly Occupied:                                                      

       1A1    -0.254352  

    Virtual:                                                              

       2A1     0.091462  

    Final Occupation by Irrep:
             A1    A2    B1    B2 
    DOCC [     1,    0,    0,    0 ]

  Energy converged.

  @DF-RHF Final Energy:    -0.76120169634891

   => Energetics <=

    Nuclear Repulsion Energy =              0.2500000000000000
    One-Electron Energy =                  -1.5136986885646686
    Two-Electron Energy =                   0.5024969922157623
    Total Energy =                         -0.7612016963489063



Properties will be evaluated at   0.000000,   0.000000,   0.000000 [a0]

Properties computed using the SCF density matrix

  Nuclear Dipole Moment: [e a0]
     X:     0.0000      Y:     0.0000      Z:     4.0000

  Electronic Dipole Moment: [e a0]
     X:     0.0000      Y:     0.0000      Z:    -4.0000

  Dipole Moment: [e a0]
     X:     0.0000      Y:     0.0000      Z:     0.0000     Total:     0.0000

  Dipole Moment: [D]
     X:     0.0000      Y:     0.0000      Z:     0.0000     Total:     0.0000


*** tstop() called on comp0002 at Thu Jul  4 15:56:08 2019
Module time:
	user time   =       0.48 seconds =       0.01 minutes
	system time =       0.49 seconds =       0.01 minutes
	total time  =          1 seconds =       0.02 minutes
Total time:
	user time   =       7.55 seconds =       0.13 minutes
	system time =       8.38 seconds =       0.14 minutes
	total time  =          6 seconds =       0.10 minutes
Molecule: Setting geometry variable R to 5.000000

*** tstart() called on comp0002
*** at Thu Jul  4 15:56:08 2019

   => Loading Basis Set <=

    Name: STO-3G
    Role: ORBITAL
    Keyword: BASIS
    atoms 1-2 entry H          line    19 file /usr/local/psi4/share/psi4/basis/sto-3g.gbs 


         ---------------------------------------------------------
                                   SCF
            by Justin Turney, Rob Parrish, Andy Simmonett
                             and Daniel Smith
                              RHF Reference
                        1 Threads,    500 MiB Core
         ---------------------------------------------------------

  ==> Geometry <==

    Molecular point group: c2v
    Full point group: C_inf_v

    Geometry (in Bohr), charge = 0, multiplicity = 1:

       Center              X                  Y                   Z               Mass       
    ------------   -----------------  -----------------  -----------------  -----------------
         H            0.000000000000     0.000000000000     0.000000000000     1.007825032070
         H            0.000000000000     0.000000000000     5.000000000000     1.007825032070

  Running in c2v symmetry.

  Rotational constants: A = ************  B =      2.38929  C =      2.38929 [cm^-1]
  Rotational constants: A = ************  B =  71629.14780  C =  71629.14780 [MHz]
  Nuclear repulsion =    0.200000000000000

  Charge       = 0
  Multiplicity = 1
  Electrons    = 2
  Nalpha       = 1
  Nbeta        = 1

  ==> Algorithm <==

  SCF Algorithm Type is DF.
  DIIS enabled.
  MOM disabled.
  Fractional occupation disabled.
  Guess Type is SAD.
  Energy threshold   = 1.00e-06
  Density threshold  = 1.00e-06
  Integral threshold = 0.00e+00

  ==> Primary Basis <==

  Basis Set: STO-3G
    Blend: STO-3G
    Number of shells: 2
    Number of basis function: 2
    Number of Cartesian functions: 2
    Spherical Harmonics?: true
    Max angular momentum: 0

   => Loading Basis Set <=

    Name: (STO-3G AUX)
    Role: JKFIT
    Keyword: DF_BASIS_SCF
    atoms 1-2 entry H          line    23 file /usr/local/psi4/share/psi4/basis/def2-svp-jkfit.gbs 

  ==> Pre-Iterations <==

   -------------------------------------------------------
    Irrep   Nso     Nmo     Nalpha   Nbeta   Ndocc  Nsocc
   -------------------------------------------------------
     A1         2       2       0       0       0       0
     A2         0       0       0       0       0       0
     B1         0       0       0       0       0       0
     B2         0       0       0       0       0       0
   -------------------------------------------------------
    Total       2       2       1       1       1       0
   -------------------------------------------------------

  ==> Integral Setup <==

  DFHelper Memory: AOs need 0.000 [GiB]; user supplied 0.366 [GiB]. Using in-core AOs.

  ==> MemDFJK: Density-Fitted J/K Matrices <==

    J tasked:                   Yes
    K tasked:                   Yes
    wK tasked:                   No
    OpenMP threads:               1
    Memory (MB):                375
    Algorithm:                 Core
    Schwarz Cutoff:           1E-12
    Mask sparsity (%):       0.0000
    Fitting Condition:        1E-12

   => Auxiliary Basis Set <=

  Basis Set: (STO-3G AUX)
    Blend: DEF2-SVP-JKFIT
    Number of shells: 12
    Number of basis function: 36
    Number of Cartesian functions: 40
    Spherical Harmonics?: true
    Max angular momentum: 2

  Minimum eigenvalue in the overlap matrix is 9.6252994989E-01.
  Using Symmetric Orthogonalization.

  SCF Guess: Superposition of Atomic Densities via on-the-fly atomic UHF.

  ==> Iterations <==

                           Total Energy        Delta E     RMS |[F,P]|

   @DF-RHF iter   0:    -0.54639072578428   -5.46391e-01   1.10475e-17 
   @DF-RHF iter   1:    -0.68655980952543   -1.40169e-01   3.60393e-15 
   @DF-RHF iter   2:    -0.68655980952543    3.33067e-16   5.53847e-15 DIIS

  ==> Post-Iterations <==

    Orbital Energies [Eh]
    ---------------------

    Doubly Occupied:                                                      

       1A1    -0.202928  

    Virtual:                                                              

       2A1     0.038509  

    Final Occupation by Irrep:
             A1    A2    B1    B2 
    DOCC [     1,    0,    0,    0 ]

  Energy converged.

  @DF-RHF Final Energy:    -0.68655980952543

   => Energetics <=

    Nuclear Repulsion Energy =              0.2000000000000000
    One-Electron Energy =                  -1.3672626668640033
    Two-Electron Energy =                   0.4807028573385747
    PCM Polarization Energy =               0.0000000000000000
    Total Energy =                         -0.6865598095254287

    Alert: EFP and PCM quantities not currently incorporated into SCF psivars.

Properties will be evaluated at   0.000000,   0.000000,   0.000000 [a0]

Properties computed using the SCF density matrix

  Nuclear Dipole Moment: [e a0]
     X:     0.0000      Y:     0.0000      Z:     5.0000

  Electronic Dipole Moment: [e a0]
     X:     0.0000      Y:     0.0000      Z:    -5.0000

  Dipole Moment: [e a0]
     X:     0.0000      Y:     0.0000      Z:     0.0000     Total:     0.0000

  Dipole Moment: [D]
     X:     0.0000      Y:     0.0000      Z:     0.0000     Total:     0.0000


*** tstop() called on comp0002 at Thu Jul  4 15:56:08 2019
Module time:
	user time   =       0.49 seconds =       0.01 minutes
	system time =       0.44 seconds =       0.01 minutes
	total time  =          0 seconds =       0.00 minutes
Total time:
	user time   =       8.06 seconds =       0.13 minutes
	system time =       8.86 seconds =       0.15 minutes
	total time  =          6 seconds =       0.10 minutes
Molecule: Setting geometry variable R to 6.000000

*** tstart() called on comp0002
*** at Thu Jul  4 15:56:08 2019

   => Loading Basis Set <=

    Name: STO-3G
    Role: ORBITAL
    Keyword: BASIS
    atoms 1-2 entry H          line    19 file /usr/local/psi4/share/psi4/basis/sto-3g.gbs 


         ---------------------------------------------------------
                                   SCF
            by Justin Turney, Rob Parrish, Andy Simmonett
                             and Daniel Smith
                              RHF Reference
                        1 Threads,    500 MiB Core
         ---------------------------------------------------------

  ==> Geometry <==

    Molecular point group: c2v
    Full point group: C_inf_v

    Geometry (in Bohr), charge = 0, multiplicity = 1:

       Center              X                  Y                   Z               Mass       
    ------------   -----------------  -----------------  -----------------  -----------------
         H            0.000000000000     0.000000000000     0.000000000000     1.007825032070
         H            0.000000000000     0.000000000000     6.000000000000     1.007825032070

  Running in c2v symmetry.

  Rotational constants: A = ************  B =      1.65923  C =      1.65923 [cm^-1]
  Rotational constants: A = ************  B =  49742.46375  C =  49742.46375 [MHz]
  Nuclear repulsion =    0.166666666666667

  Charge       = 0
  Multiplicity = 1
  Electrons    = 2
  Nalpha       = 1
  Nbeta        = 1

  ==> Algorithm <==

  SCF Algorithm Type is DF.
  DIIS enabled.
  MOM disabled.
  Fractional occupation disabled.
  Guess Type is SAD.
  Energy threshold   = 1.00e-06
  Density threshold  = 1.00e-06
  Integral threshold = 0.00e+00

  ==> Primary Basis <==

  Basis Set: STO-3G
    Blend: STO-3G
    Number of shells: 2
    Number of basis function: 2
    Number of Cartesian functions: 2
    Spherical Harmonics?: true
    Max angular momentum: 0

   => Loading Basis Set <=

    Name: (STO-3G AUX)
    Role: JKFIT
    Keyword: DF_BASIS_SCF
    atoms 1-2 entry H          line    23 file /usr/local/psi4/share/psi4/basis/def2-svp-jkfit.gbs 

  ==> Pre-Iterations <==

   -------------------------------------------------------
    Irrep   Nso     Nmo     Nalpha   Nbeta   Ndocc  Nsocc
   -------------------------------------------------------
     A1         2       2       0       0       0       0
     A2         0       0       0       0       0       0
     B1         0       0       0       0       0       0
     B2         0       0       0       0       0       0
   -------------------------------------------------------
    Total       2       2       1       1       1       0
   -------------------------------------------------------

  ==> Integral Setup <==

  DFHelper Memory: AOs need 0.000 [GiB]; user supplied 0.366 [GiB]. Using in-core AOs.

  ==> MemDFJK: Density-Fitted J/K Matrices <==

    J tasked:                   Yes
    K tasked:                   Yes
    wK tasked:                   No
    OpenMP threads:               1
    Memory (MB):                375
    Algorithm:                 Core
    Schwarz Cutoff:           1E-12
    Mask sparsity (%):       0.0000
    Fitting Condition:        1E-12

   => Auxiliary Basis Set <=

  Basis Set: (STO-3G AUX)
    Blend: DEF2-SVP-JKFIT
    Number of shells: 12
    Number of basis function: 36
    Number of Cartesian functions: 40
    Spherical Harmonics?: true
    Max angular momentum: 2

  Minimum eigenvalue in the overlap matrix is 9.8746870488E-01.
  Using Symmetric Orthogonalization.

  SCF Guess: Superposition of Atomic Densities via on-the-fly atomic UHF.

  ==> Iterations <==

                           Total Energy        Delta E     RMS |[F,P]|

   @DF-RHF iter   0:    -0.54604724905312   -5.46047e-01   9.81385e-18 
   @DF-RHF iter   1:    -0.64522705474507   -9.91798e-02   2.61245e-14 
   @DF-RHF iter   2:    -0.64522705474507   -2.22045e-16   6.31619e-14 DIIS

  ==> Post-Iterations <==

    Orbital Energies [Eh]
    ---------------------

    Doubly Occupied:                                                      

       1A1    -0.172290  

    Virtual:                                                              

       2A1     0.010377  

    Final Occupation by Irrep:
             A1    A2    B1    B2 
    DOCC [     1,    0,    0,    0 ]

  Energy converged.

  @DF-RHF Final Energy:    -0.64522705474507

   => Energetics <=

    Nuclear Repulsion Energy =              0.1666666666666667
    One-Electron Energy =                  -1.2792079290361835
    Two-Electron Energy =                   0.4673142076244461
    PCM Polarization Energy =               0.0000000000000000
    Total Energy =                         -0.6452270547450707

    Alert: EFP and PCM quantities not currently incorporated into SCF psivars.

Properties will be evaluated at   0.000000,   0.000000,   0.000000 [a0]

Properties computed using the SCF density matrix

  Nuclear Dipole Moment: [e a0]
     X:     0.0000      Y:     0.0000      Z:     6.0000

  Electronic Dipole Moment: [e a0]
     X:     0.0000      Y:     0.0000      Z:    -6.0000

  Dipole Moment: [e a0]
     X:     0.0000      Y:     0.0000      Z:     0.0000     Total:     0.0000

  Dipole Moment: [D]
     X:     0.0000      Y:     0.0000      Z:     0.0000     Total:     0.0000


*** tstop() called on comp0002 at Thu Jul  4 15:56:08 2019
Module time:
	user time   =       0.43 seconds =       0.01 minutes
	system time =       0.54 seconds =       0.01 minutes
	total time  =          0 seconds =       0.00 minutes
Total time:
	user time   =       8.50 seconds =       0.14 minutes
	system time =       9.44 seconds =       0.16 minutes
	total time  =          6 seconds =       0.10 minutes

    Psi4 stopped on: Thursday, 04 July 2019 03:56PM
    Psi4 wall time for execution: 0:00:05.71

*** Psi4 exiting successfully. Buy a developer a beer!
