
    -----------------------------------------------------------------------
          Psi4: An Open-Source Ab Initio Electronic Structure Package
                               Psi4 1.2 release

                         Git: Rev {HEAD} 9d4a61c 


    R. M. Parrish, L. A. Burns, D. G. A. Smith, A. C. Simmonett,
    A. E. DePrince III, E. G. Hohenstein, U. Bozkaya, A. Yu. Sokolov,
    R. Di Remigio, R. M. Richard, J. F. Gonthier, A. M. James,
    H. R. McAlexander, A. Kumar, M. Saitow, X. Wang, B. P. Pritchard,
    P. Verma, H. F. Schaefer III, K. Patkowski, R. A. King, E. F. Valeev,
    F. A. Evangelista, J. M. Turney, T. D. Crawford, and C. D. Sherrill,
    J. Chem. Theory Comput. 13(7) pp 3185--3197 (2017).
    (doi: 10.1021/acs.jctc.7b00174)


                         Additional Contributions by
    P. Kraus, H. Kruse, M. H. Lechner, M. C. Schieber, and R. A. Shaw

    -----------------------------------------------------------------------


    Psi4 started on: Thursday, 18 July 2019 03:22PM

    Process ID: 85912
    Host:       comp0002
    PSIDATADIR: /usr/local/psi4/share/psi4
    Memory:     500.0 MiB
    Threads:    1
    
  ==> Input File <==

--------------------------------------------------------------------------
#! STO-3G H2 Hartree-Fock Energy Point
# see also: http://pubchemqc.riken.jp/cgi-bin/molecularquery.py?name=hydrogen

molecule h2 {
H            0.0   0.0   0.0
H            0.0   0.0   1.4001
unit bohr
symmetry c1
}

set {
  basis STO-3G
}

en, wfn = energy('hf', return_wfn=True)

nbf = wfn.nso() # of basis function
Ca = wfn.Ca()   # AO->MO matrix
_Ca = np.asarray(Ca)

mints = psi4.core.MintsHelper(wfn.basisset())
mo_I = np.asarray(mints.mo_transform(mints.ao_eri(), Ca, Ca, Ca, Ca))
ao_T = np.asarray(mints.ao_kinetic())
ao_V = np.asarray(mints.ao_potential())

ao_Hcore = ao_T + ao_V
mo_Hcore = np.dot(np.dot(_Ca.T, ao_Hcore), _Ca)

print("1 electron integral")
for i in range(nbf):
  for j in range(i,nbf):
     if (math.fabs(mo_Hcore[i,j]) > 1.0e-8):
          print (i+1,j+1, mo_Hcore[i,j])

print("2 electron integral")
for i in range(nbf):
  for j in range(i,nbf):
    for k in range(nbf):
      for l in range(k,nbf):
        if ( (i*nbf+j) >= (k*nbf+j) ):
          if (math.fabs(mo_I[i,j,k,l]) > 1.0e-8):
            print (i+1,j+1,k+1,l+1, mo_I[i,j,k,l])

--------------------------------------------------------------------------

*** tstart() called on comp0002
*** at Thu Jul 18 15:22:18 2019

   => Loading Basis Set <=

    Name: STO-3G
    Role: ORBITAL
    Keyword: BASIS
    atoms 1-2 entry H          line    19 file /usr/local/psi4/share/psi4/basis/sto-3g.gbs 

    There are an even number of electrons - assuming singlet.
    Specify the multiplicity in the molecule input block.


         ---------------------------------------------------------
                                   SCF
            by Justin Turney, Rob Parrish, Andy Simmonett
                             and Daniel Smith
                              RHF Reference
                        1 Threads,    500 MiB Core
         ---------------------------------------------------------

  ==> Geometry <==

    Molecular point group: c1
    Full point group: D_inf_h

    Geometry (in Bohr), charge = 0, multiplicity = 1:

       Center              X                  Y                   Z               Mass       
    ------------   -----------------  -----------------  -----------------  -----------------
         H            0.000000000000     0.000000000000    -0.700050000000     1.007825032070
         H            0.000000000000     0.000000000000     0.700050000000     1.007825032070

  Running in c1 symmetry.

  Rotational constants: A = ************  B =     60.94260  C =     60.94260 [cm^-1]
  Rotational constants: A = ************  B = 1827013.16726  C = 1827013.16726 [MHz]
  Nuclear repulsion =    0.714234697521606

  Charge       = 0
  Multiplicity = 1
  Electrons    = 2
  Nalpha       = 1
  Nbeta        = 1

  ==> Algorithm <==

  SCF Algorithm Type is DF.
  DIIS enabled.
  MOM disabled.
  Fractional occupation disabled.
  Guess Type is SAD.
  Energy threshold   = 1.00e-06
  Density threshold  = 1.00e-06
  Integral threshold = 0.00e+00

  ==> Primary Basis <==

  Basis Set: STO-3G
    Blend: STO-3G
    Number of shells: 2
    Number of basis function: 2
    Number of Cartesian functions: 2
    Spherical Harmonics?: true
    Max angular momentum: 0

   => Loading Basis Set <=

    Name: (STO-3G AUX)
    Role: JKFIT
    Keyword: DF_BASIS_SCF
    atoms 1-2 entry H          line    23 file /usr/local/psi4/share/psi4/basis/def2-svp-jkfit.gbs 

  ==> Pre-Iterations <==

   -------------------------------------------------------
    Irrep   Nso     Nmo     Nalpha   Nbeta   Ndocc  Nsocc
   -------------------------------------------------------
     A          2       2       0       0       0       0
   -------------------------------------------------------
    Total       2       2       1       1       1       0
   -------------------------------------------------------

  ==> Integral Setup <==

  ==> MemDFJK: Density-Fitted J/K Matrices <==

    J tasked:                   Yes
    K tasked:                   Yes
    wK tasked:                   No
    OpenMP threads:               1
    Memory (MB):                375
    Algorithm:                 Core
    Schwarz Cutoff:           1E-12
    Mask sparsity (%):       0.0000
    Fitting Condition:        1E-12

   => Auxiliary Basis Set <=

  Basis Set: (STO-3G AUX)
    Blend: DEF2-SVP-JKFIT
    Number of shells: 12
    Number of basis function: 36
    Number of Cartesian functions: 40
    Spherical Harmonics?: true
    Max angular momentum: 2

  Minimum eigenvalue in the overlap matrix is 3.4071641652E-01.
  Using Symmetric Orthogonalization.

  SCF Guess: Superposition of Atomic Densities via on-the-fly atomic UHF.

  ==> Iterations <==

                           Total Energy        Delta E     RMS |[F,P]|

   @DF-RHF iter   0:    -0.71817779888054   -7.18178e-01   1.04409e-16 
   @DF-RHF iter   1:    -1.11673548045043   -3.98558e-01   1.04409e-16 
   @DF-RHF iter   2:    -1.11673548045043   -6.66134e-16   1.04409e-16 DIIS

  ==> Post-Iterations <==

    Orbital Energies [Eh]
    ---------------------

    Doubly Occupied:                                                      

       1A     -0.578205  

    Virtual:                                                              

       2A      0.670021  

    Final Occupation by Irrep:
              A 
    DOCC [     1 ]

  Energy converged.

  @DF-RHF Final Energy:    -1.11673548045043

   => Energetics <=

    Nuclear Repulsion Energy =              0.7142346975216056
    One-Electron Energy =                  -2.5055301609153209
    Two-Electron Energy =                   0.6745599829432896
    Total Energy =                         -1.1167354804504257



Properties will be evaluated at   0.000000,   0.000000,   0.000000 [a0]

Properties computed using the SCF density matrix

  Nuclear Dipole Moment: [e a0]
     X:     0.0000      Y:     0.0000      Z:     0.0000

  Electronic Dipole Moment: [e a0]
     X:     0.0000      Y:     0.0000      Z:     0.0000

  Dipole Moment: [e a0]
     X:     0.0000      Y:     0.0000      Z:     0.0000     Total:     0.0000

  Dipole Moment: [D]
     X:     0.0000      Y:     0.0000      Z:     0.0000     Total:     0.0000


*** tstop() called on comp0002 at Thu Jul 18 15:22:18 2019
Module time:
	user time   =       0.54 seconds =       0.01 minutes
	system time =       0.60 seconds =       0.01 minutes
	total time  =          0 seconds =       0.00 minutes
Total time:
	user time   =       0.54 seconds =       0.01 minutes
	system time =       0.60 seconds =       0.01 minutes
	total time  =          0 seconds =       0.00 minutes

    Psi4 stopped on: Thursday, 18 July 2019 03:22PM
    Psi4 wall time for execution: 0:00:00.42

*** Psi4 exiting successfully. Buy a developer a beer!
