
    -----------------------------------------------------------------------
          Psi4: An Open-Source Ab Initio Electronic Structure Package
                               Psi4 1.2.1 release

                         Git: Rev {HEAD} 406f4de 


    R. M. Parrish, L. A. Burns, D. G. A. Smith, A. C. Simmonett,
    A. E. DePrince III, E. G. Hohenstein, U. Bozkaya, A. Yu. Sokolov,
    R. Di Remigio, R. M. Richard, J. F. Gonthier, A. M. James,
    H. R. McAlexander, A. Kumar, M. Saitow, X. Wang, B. P. Pritchard,
    P. Verma, H. F. Schaefer III, K. Patkowski, R. A. King, E. F. Valeev,
    F. A. Evangelista, J. M. Turney, T. D. Crawford, and C. D. Sherrill,
    J. Chem. Theory Comput. 13(7) pp 3185--3197 (2017).
    (doi: 10.1021/acs.jctc.7b00174)


                         Additional Contributions by
    P. Kraus, H. Kruse, M. H. Lechner, M. C. Schieber, and R. A. Shaw

    -----------------------------------------------------------------------


    Psi4 started on: Thursday, 04 July 2019 05:11PM

    Process ID: 79459
    Host:       comp0002
    PSIDATADIR: /usr/local/psi4/share/psi4
    Memory:     500.0 MiB
    Threads:    1
    
  ==> Input File <==

--------------------------------------------------------------------------
#! STO-3G H2O Hartree-Fock
# GEOM: B3LYP/6-31G* taken from http://pubchemqc.riken.jp/cgi-bin/molecularquery.py?name=water

molecule h2o {
O           0.9784782017    0.0224130404    0.0994725951
H           1.9459769733    0.0279738016    0.0505799279
H           0.7023051046    0.1274709488   -0.8231103953
symmetry c1
}

set {
  basis STO-3G
}

en, wfn = energy('hf', return_wfn=True)

nbf = wfn.nso() # of basis function
Ca = wfn.Ca()   # get AO->MO matrix
_Ca = np.asarray(Ca) # AO->MO matrix in numpy format

mints = psi4.core.MintsHelper(wfn.basisset())

#get ERI
mo_ERI = np.asarray(mints.mo_transform(mints.ao_eri(), Ca, Ca, Ca, Ca))
#get kinetic and n-e integral in AO format
ao_T = np.asarray(mints.ao_kinetic())
ao_V = np.asarray(mints.ao_potential())

ao_Hcore = ao_T + ao_V
#obtain Hcore in MO basis
mo_Hcore = np.dot(np.dot(_Ca.T, ao_Hcore), _Ca)

count=0
for i in range(nbf):
  for j in range(i,nbf):
     if (math.fabs(mo_Hcore[i,j]) > 1.0e-6):
       count = count+1

print("1 electron integrals")
print("%d" % count )
for i in range(nbf):
  for j in range(i,nbf):
     if (math.fabs(mo_Hcore[i,j]) > 1.0e-6):
          print ('%3d, %3d,  %+.16e' % (i+1,j+1, mo_Hcore[i,j]))


count=0
for i in range(nbf):
  for j in range(i,nbf):
    for k in range(nbf):
      for l in range(k,nbf):
        if ( (i*nbf+j) >= (k*nbf+j) ):
          if (math.fabs(mo_ERI[i,j,k,l]) > 1.0e-6):
            count = count+1

print("2 electron integrals")
print("%d" % count)
for i in range(nbf):
  for j in range(i,nbf):
    for k in range(nbf):
      for l in range(k,nbf):
        if ( (i*nbf+j) >= (k*nbf+j) ):
          if (math.fabs(mo_ERI[i,j,k,l]) > 1.0e-6):
            print ('%3d, %3d, %3d, %3d,  %+.16e ' % (i+1,j+1,k+1,l+1, mo_ERI[i,j,k,l]) )


--------------------------------------------------------------------------

*** tstart() called on comp0002
*** at Thu Jul  4 17:11:22 2019

   => Loading Basis Set <=

    Name: STO-3G
    Role: ORBITAL
    Keyword: BASIS
    atoms 1   entry O          line    81 file /usr/local/psi4/share/psi4/basis/sto-3g.gbs 
    atoms 2-3 entry H          line    19 file /usr/local/psi4/share/psi4/basis/sto-3g.gbs 

    There are an even number of electrons - assuming singlet.
    Specify the multiplicity in the molecule input block.


         ---------------------------------------------------------
                                   SCF
            by Justin Turney, Rob Parrish, Andy Simmonett
                             and Daniel Smith
                              RHF Reference
                        1 Threads,    500 MiB Core
         ---------------------------------------------------------

  ==> Geometry <==

    Molecular point group: c1
    Full point group: Cs

    Geometry (in Angstrom), charge = 0, multiplicity = 1:

       Center              X                  Y                   Z               Mass       
    ------------   -----------------  -----------------  -----------------  -----------------
         O           -0.054712566261     0.038684812627     0.000000000000    15.994914619560
         H           -0.005504691623    -0.928813958996     0.000000000000     1.007825032070
         H            0.873832822123     0.314857909733    -0.000000000000     1.007825032070

  Running in c1 symmetry.

  Rotational constants: A =     26.26987  B =     14.41989  C =      9.30968 [cm^-1]
  Rotational constants: A = 787551.03384  B = 432297.41951  C = 279097.19336 [MHz]
  Nuclear repulsion =    9.087406975389447

  Charge       = 0
  Multiplicity = 1
  Electrons    = 10
  Nalpha       = 5
  Nbeta        = 5

  ==> Algorithm <==

  SCF Algorithm Type is DF.
  DIIS enabled.
  MOM disabled.
  Fractional occupation disabled.
  Guess Type is SAD.
  Energy threshold   = 1.00e-06
  Density threshold  = 1.00e-06
  Integral threshold = 0.00e+00

  ==> Primary Basis <==

  Basis Set: STO-3G
    Blend: STO-3G
    Number of shells: 5
    Number of basis function: 7
    Number of Cartesian functions: 7
    Spherical Harmonics?: true
    Max angular momentum: 1

   => Loading Basis Set <=

    Name: (STO-3G AUX)
    Role: JKFIT
    Keyword: DF_BASIS_SCF
    atoms 1   entry O          line   323 file /usr/local/psi4/share/psi4/basis/def2-svp-jkfit.gbs 
    atoms 2-3 entry H          line    23 file /usr/local/psi4/share/psi4/basis/def2-svp-jkfit.gbs 

  ==> Pre-Iterations <==

   -------------------------------------------------------
    Irrep   Nso     Nmo     Nalpha   Nbeta   Ndocc  Nsocc
   -------------------------------------------------------
     A          7       7       0       0       0       0
   -------------------------------------------------------
    Total       7       7       5       5       5       0
   -------------------------------------------------------

  ==> Integral Setup <==

  DFHelper Memory: AOs need 0.000 [GiB]; user supplied 0.366 [GiB]. Using in-core AOs.

  ==> MemDFJK: Density-Fitted J/K Matrices <==

    J tasked:                   Yes
    K tasked:                   Yes
    wK tasked:                   No
    OpenMP threads:               1
    Memory (MB):                375
    Algorithm:                 Core
    Schwarz Cutoff:           1E-12
    Mask sparsity (%):       0.0000
    Fitting Condition:        1E-12

   => Auxiliary Basis Set <=

  Basis Set: (STO-3G AUX)
    Blend: DEF2-SVP-JKFIT
    Number of shells: 37
    Number of basis function: 113
    Number of Cartesian functions: 133
    Spherical Harmonics?: true
    Max angular momentum: 4

  Minimum eigenvalue in the overlap matrix is 3.4972745801E-01.
  Using Symmetric Orthogonalization.

  SCF Guess: Superposition of Atomic Densities via on-the-fly atomic UHF.

  ==> Iterations <==

                           Total Energy        Delta E     RMS |[F,P]|

   @DF-RHF iter   0:   -74.72047763364004   -7.47205e+01   2.09380e-01 
   @DF-RHF iter   1:   -74.93898546806039   -2.18508e-01   2.45352e-02 
   @DF-RHF iter   2:   -74.96281829380332   -2.38328e-02   5.00053e-03 DIIS
   @DF-RHF iter   3:   -74.96422279985326   -1.40451e-03   2.10185e-03 DIIS
   @DF-RHF iter   4:   -74.96459760851999   -3.74809e-04   3.37869e-04 DIIS
   @DF-RHF iter   5:   -74.96460654830177   -8.93978e-06   2.55686e-05 DIIS
   @DF-RHF iter   6:   -74.96460658163576   -3.33340e-08   5.34263e-06 DIIS
   @DF-RHF iter   7:   -74.96460658341161   -1.77585e-09   9.47571e-07 DIIS

  ==> Post-Iterations <==

    Orbital Energies [Eh]
    ---------------------

    Doubly Occupied:                                                      

       1A    -20.244551     2A     -1.263608     3A     -0.610465  
       4A     -0.453685     5A     -0.391168  

    Virtual:                                                              

       6A      0.595820     7A      0.726329  

    Final Occupation by Irrep:
              A 
    DOCC [     5 ]

  Energy converged.

  @DF-RHF Final Energy:   -74.96460658341161

   => Energetics <=

    Nuclear Repulsion Energy =              9.0874069753894471
    One-Electron Energy =                -122.1770769399337127
    Two-Electron Energy =                  38.1250633811326693
    Total Energy =                        -74.9646065834116087



Properties will be evaluated at   0.000000,   0.000000,   0.000000 [a0]

Properties computed using the SCF density matrix

  Nuclear Dipole Moment: [e a0]
     X:     0.8138      Y:    -0.5754      Z:    -0.0000

  Electronic Dipole Moment: [e a0]
     X:    -0.2626      Y:     0.1857      Z:    -0.0000

  Dipole Moment: [e a0]
     X:     0.5512      Y:    -0.3897      Z:    -0.0000     Total:     0.6750

  Dipole Moment: [D]
     X:     1.4010      Y:    -0.9905      Z:    -0.0000     Total:     1.7158


*** tstop() called on comp0002 at Thu Jul  4 17:11:23 2019
Module time:
	user time   =       0.73 seconds =       0.01 minutes
	system time =       1.32 seconds =       0.02 minutes
	total time  =          1 seconds =       0.02 minutes
Total time:
	user time   =       0.73 seconds =       0.01 minutes
	system time =       1.32 seconds =       0.02 minutes
	total time  =          1 seconds =       0.02 minutes

    Psi4 stopped on: Thursday, 04 July 2019 05:11PM
    Psi4 wall time for execution: 0:00:00.48

*** Psi4 exiting successfully. Buy a developer a beer!
