
    -----------------------------------------------------------------------
          Psi4: An Open-Source Ab Initio Electronic Structure Package
                               Psi4 1.2.1 release

                         Git: Rev {HEAD} 406f4de 


    R. M. Parrish, L. A. Burns, D. G. A. Smith, A. C. Simmonett,
    A. E. DePrince III, E. G. Hohenstein, U. Bozkaya, A. Yu. Sokolov,
    R. Di Remigio, R. M. Richard, J. F. Gonthier, A. M. James,
    H. R. McAlexander, A. Kumar, M. Saitow, X. Wang, B. P. Pritchard,
    P. Verma, H. F. Schaefer III, K. Patkowski, R. A. King, E. F. Valeev,
    F. A. Evangelista, J. M. Turney, T. D. Crawford, and C. D. Sherrill,
    J. Chem. Theory Comput. 13(7) pp 3185--3197 (2017).
    (doi: 10.1021/acs.jctc.7b00174)


                         Additional Contributions by
    P. Kraus, H. Kruse, M. H. Lechner, M. C. Schieber, and R. A. Shaw

    -----------------------------------------------------------------------


    Psi4 started on: Friday, 05 July 2019 01:02PM

    Process ID: 85023
    Host:       comp0002
    PSIDATADIR: /usr/local/psi4/share/psi4
    Memory:     500.0 MiB
    Threads:    1
    
  ==> Input File <==

--------------------------------------------------------------------------
#! STO-3G H2O FullCI
# GEOM: B3LYP/6-31G* taken from http://pubchemqc.riken.jp/cgi-bin/molecularquery.py?name=water

molecule h2o {
O           0.9784782017    0.0224130404    0.0994725951
H           1.9459769733    0.0279738016    0.0505799279
H           0.7023051046    0.1274709488   -0.8231103953
}

set {
  basis STO-3G
}

ene = energy('fci')


--------------------------------------------------------------------------

*** tstart() called on comp0002
*** at Fri Jul  5 13:02:14 2019

   => Loading Basis Set <=

    Name: STO-3G
    Role: ORBITAL
    Keyword: BASIS
    atoms 1   entry O          line    81 file /usr/local/psi4/share/psi4/basis/sto-3g.gbs 
    atoms 2-3 entry H          line    19 file /usr/local/psi4/share/psi4/basis/sto-3g.gbs 

    There are an even number of electrons - assuming singlet.
    Specify the multiplicity in the molecule input block.


         ---------------------------------------------------------
                                   SCF
            by Justin Turney, Rob Parrish, Andy Simmonett
                             and Daniel Smith
                              RHF Reference
                        1 Threads,    500 MiB Core
         ---------------------------------------------------------

  ==> Geometry <==

    Molecular point group: cs
    Full point group: Cs

    Geometry (in Angstrom), charge = 0, multiplicity = 1:

       Center              X                  Y                   Z               Mass       
    ------------   -----------------  -----------------  -----------------  -----------------
         O           -0.054712566261     0.038684812627     0.000000000000    15.994914619560
         H           -0.005504691623    -0.928813958996     0.000000000000     1.007825032070
         H            0.873832822123     0.314857909733     0.000000000000     1.007825032070

  Running in cs symmetry.

  Rotational constants: A =     26.26987  B =     14.41989  C =      9.30968 [cm^-1]
  Rotational constants: A = 787551.03384  B = 432297.41951  C = 279097.19336 [MHz]
  Nuclear repulsion =    9.087406975389447

  Charge       = 0
  Multiplicity = 1
  Electrons    = 10
  Nalpha       = 5
  Nbeta        = 5

  ==> Algorithm <==

  SCF Algorithm Type is PK.
  DIIS enabled.
  MOM disabled.
  Fractional occupation disabled.
  Guess Type is SAD.
  Energy threshold   = 1.00e-08
  Density threshold  = 1.00e-08
  Integral threshold = 0.00e+00

  ==> Primary Basis <==

  Basis Set: STO-3G
    Blend: STO-3G
    Number of shells: 5
    Number of basis function: 7
    Number of Cartesian functions: 7
    Spherical Harmonics?: true
    Max angular momentum: 1

  ==> Pre-Iterations <==

   -------------------------------------------------------
    Irrep   Nso     Nmo     Nalpha   Nbeta   Ndocc  Nsocc
   -------------------------------------------------------
     A'         6       6       0       0       0       0
     A"         1       1       0       0       0       0
   -------------------------------------------------------
    Total       7       7       5       5       5       0
   -------------------------------------------------------

  ==> Integral Setup <==

  Using in-core PK algorithm.
   Calculation information:
      Number of atoms:                   3
      Number of AO shells:               5
      Number of primitives:             15
      Number of atomic orbitals:         7
      Number of basis functions:         7

      Integral cutoff                 1.00e-12
      Number of threads:                 1

  Performing in-core PK
  Using 812 doubles for integral storage.
  We computed 120 shell quartets total.
  Whereas there are 120 unique shell quartets.

  ==> DiskJK: Disk-Based J/K Matrices <==

    J tasked:                  Yes
    K tasked:                  Yes
    wK tasked:                  No
    Memory (MB):               375
    Schwarz Cutoff:          1E-12

    OpenMP threads:              1

  Minimum eigenvalue in the overlap matrix is 3.4972745801E-01.
  Using Symmetric Orthogonalization.

  SCF Guess: Superposition of Atomic Densities via on-the-fly atomic UHF.

  ==> Iterations <==

                        Total Energy        Delta E     RMS |[F,P]|

   @RHF iter   0:   -74.64549344083838   -7.46455e+01   2.40598e-01 
   @RHF iter   1:   -74.94054033176739   -2.95047e-01   2.93403e-02 
   @RHF iter   2:   -74.96406658107561   -2.35262e-02   4.02439e-03 DIIS
   @RHF iter   3:   -74.96448470116734   -4.18120e-04   9.59229e-04 DIIS
   @RHF iter   4:   -74.96451893377224   -3.42326e-05   6.32723e-05 DIIS
   @RHF iter   5:   -74.96451910901021   -1.75238e-07   8.49291e-06 DIIS
   @RHF iter   6:   -74.96451911273631   -3.72610e-09   1.76705e-06 DIIS
   @RHF iter   7:   -74.96451911288344   -1.47125e-10   2.20747e-07 DIIS
   @RHF iter   8:   -74.96451911288599   -2.55795e-12   2.99946e-08 DIIS
   @RHF iter   9:   -74.96451911288602   -2.84217e-14   2.69638e-09 DIIS

  ==> Post-Iterations <==

    Orbital Energies [Eh]
    ---------------------

    Doubly Occupied:                                                      

       1Ap   -20.244332     2Ap    -1.263592     3Ap    -0.610466  
       4Ap    -0.453686     1App   -0.391169  

    Virtual:                                                              

       5Ap     0.595789     6Ap     0.726284  

    Final Occupation by Irrep:
             Ap   App 
    DOCC [     4,    1 ]

  Energy converged.

  @RHF Final Energy:   -74.96451911288602

   => Energetics <=

    Nuclear Repulsion Energy =              9.0874069753894471
    One-Electron Energy =                -122.1773629429579415
    Two-Electron Energy =                  38.1254368546824765
    Total Energy =                        -74.9645191128860233



Properties will be evaluated at   0.000000,   0.000000,   0.000000 [a0]

Properties computed using the SCF density matrix

  Nuclear Dipole Moment: [e a0]
     X:     0.8138      Y:    -0.5754      Z:     0.0000

  Electronic Dipole Moment: [e a0]
     X:    -0.2625      Y:     0.1856      Z:     0.0000

  Dipole Moment: [e a0]
     X:     0.5513      Y:    -0.3898      Z:     0.0000     Total:     0.6751

  Dipole Moment: [D]
     X:     1.4012      Y:    -0.9907      Z:     0.0000     Total:     1.7161


*** tstop() called on comp0002 at Fri Jul  5 13:02:14 2019
Module time:
	user time   =       0.77 seconds =       0.01 minutes
	system time =       1.67 seconds =       0.03 minutes
	total time  =          0 seconds =       0.00 minutes
Total time:
	user time   =       0.77 seconds =       0.01 minutes
	system time =       1.67 seconds =       0.03 minutes
	total time  =          0 seconds =       0.00 minutes
 MINTS: Wrapper to libmints.
   by Justin Turney

   Calculation information:
      Number of threads:                 1
      Number of atoms:                   3
      Number of AO shells:               5
      Number of SO shells:               5
      Number of primitives:             15
      Number of atomic orbitals:         7
      Number of basis functions:         7

      Number of irreps:                  2
      Integral cutoff                 0.00e+00
      Number of functions per irrep: [   6    1 ]

 OEINTS: Overlap, kinetic, potential, dipole, and quadrupole integrals
         stored in file 35.

      Computing two-electron integrals...done
      Computed 242 non-zero two-electron integrals.
        Stored in file 33.


         ---------------------------------------------------------
                          Configuration Interaction
                            (a 'D E T C I' module)

                 C. David Sherrill, Daniel G. A. Smith, and
                              Matt L. Leininger
         ---------------------------------------------------------


   ==> Parameters <==

    EX LEVEL       =       10      H0 BLOCKSIZE  =     1000
    VAL EX LEVEL   =        0      H0 GUESS SIZE =     1000
    H0COUPLINGSIZE =        0      H0 COUPLING   =       NO
    MAXITER        =       24      NUM PRINT     =       20
    NUM ROOTS      =        1      ICORE         =        1
    PRINT LVL      =        1      FCI           =      YES
    R CONV         = 1.00e-04      MIXED         =      YES
    E CONV         = 1.00e-06      MIXED4        =      YES
    R4S            =       NO      REPL OTF      =       NO
    DIAG METHOD    =      SEM      FOLLOW ROOT   =        0
    PRECONDITIONER = DAVIDSON      UPDATE        = DAVIDSON
    S              =   0.0000      Ms0           =      YES
    GUESS VECTOR   =  H0BLOCK      OPENTYPE      =     NONE
    COLLAPSE SIZE  =        1      HD AVG        = EVANGELISTI
    MAX NUM VECS   =       25      REF SYM       =     AUTO
    IOPEN        =       NO

    EX ALLOW       =  1  1  1  1  1  1  1  1  1  1 
    STATE AVERAGE  =  0(1.00) 

   ==> CI Orbital and Space information <==

   ------------------------------------------
               Space    Total    A'    A"
   ------------------------------------------
                 Nso        7     6     1
                 Nmo        7     6     1
               Ndocc        5     4     1
               Nsocc        0     0     0
   ------------------------------------------
                 CI Spaces
   ------------------------------------------
        Dropped DOCC        0     0     0
              Active        7     6     1
        Dropped UOCC        0     0     0
   ------------------------------------------

   ==> Setting up CI strings <==

    There are 21 alpha and 21 beta strings
    The CI space requires 261 (2.61E+02) determinants and 2 blocks

   ==> Transforming CI integrals <==

	Presorting SO-basis two-electron integrals.
	Sorting File: SO Ints (nn|nn) nbuckets = 1
	Transforming the one-electron integrals and constructing Fock matrices
	Starting first half-transformation.
	Sorting half-transformed integrals.
	First half integral transformation complete.
	Starting second half-transformation.
	Two-electron integral transformation complete.

   ==> Starting CI iterations <==

    H0 Block Eigenvalue = -75.01562452

    Simultaneous Expansion Method (Block Davidson Method)
    Using 1 initial trial vectors

     Iter   Root       Total Energy       Delta E      C RMS

   @CI  0:     0    -75.015624517564   -8.4103E+01   3.4321E-13  
    Warning: Norm of correction (root 0) is < 1.0E-13
   @CI  1:     0    -75.015624517564   1.4211E-14   2.1692E-12 c

   ==> Energetics <==

    SCF energy =          -74.964519112886023
    Total CI energy =     -75.015624517563609

   ==> FCI root 0 information <==

    FCI Root 0 energy =   -75.015624517563609

   The 20 most important determinants:

    *   1    0.986016  (    6,    6)  1ApX 2ApX 3ApX 4ApX 1AppX 
    *   2   -0.078860  (   12,   12)  1ApX 2ApX 4ApX 1AppX 6ApX 
    *   3   -0.048596  (    7,   12)  1ApX 2ApX 3ApA 4ApB 1AppX 5ApA 6ApB 
    *   4   -0.048596  (   12,    7)  1ApX 2ApX 3ApB 4ApA 1AppX 5ApB 6ApA 
    *   5   -0.047904  (    7,    7)  1ApX 2ApX 3ApX 1AppX 5ApX 
    *   6   -0.043927  (    8,    8)  1ApX 2ApX 4ApX 1AppX 5ApX 
    *   7   -0.042412  (   11,   11)  1ApX 2ApX 3ApX 1AppX 6ApX 
    *   8   -0.035516  (    8,   11)  1ApX 2ApX 3ApB 4ApA 1AppX 5ApA 6ApB 
    *   9   -0.035516  (   11,    8)  1ApX 2ApX 3ApA 4ApB 1AppX 5ApB 6ApA 
    *  10    0.033296  (    7,    9)  1ApX 2ApA 3ApX 4ApB 1AppX 5ApX 
    *  11    0.033296  (    9,    7)  1ApX 2ApB 3ApX 4ApA 1AppX 5ApX 
    *  12   -0.031808  (    9,    9)  1ApX 3ApX 4ApX 1AppX 5ApX 
    *  13    0.031136  (    9,   12)  1ApX 2ApB 3ApA 4ApX 1AppX 5ApA 6ApB 
    *  14    0.031136  (   12,    9)  1ApX 2ApA 3ApB 4ApX 1AppX 5ApB 6ApA 
    *  15   -0.026713  (    0,    0)  1ApX 2ApX 3ApX 4ApX 5ApX 
    *  16    0.020492  (    8,   13)  1ApX 2ApA 3ApB 4ApX 1AppX 5ApA 6ApB 
    *  17    0.020492  (   13,    8)  1ApX 2ApB 3ApA 4ApX 1AppX 5ApB 6ApA 
    *  18   -0.016641  (   13,   13)  1ApX 3ApX 4ApX 1AppX 6ApX 
    *  19   -0.013080  (    6,   15)  1ApX 2ApX 3ApA 4ApA 1AppX 5ApB 6ApB 
    *  20   -0.013080  (   15,    6)  1ApX 2ApX 3ApB 4ApB 1AppX 5ApA 6ApA 

		 "A good bug is a dead bug" 

			 - Starship Troopers

		 "I didn't write FORTRAN.  That's the problem."

			 - Edward Valeev

    Psi4 stopped on: Friday, 05 July 2019 01:02PM
    Psi4 wall time for execution: 0:00:00.50

*** Psi4 exiting successfully. Buy a developer a beer!
