
    -----------------------------------------------------------------------
          Psi4: An Open-Source Ab Initio Electronic Structure Package
                               Psi4 1.2.1 release

                         Git: Rev {HEAD} 406f4de 


    R. M. Parrish, L. A. Burns, D. G. A. Smith, A. C. Simmonett,
    A. E. DePrince III, E. G. Hohenstein, U. Bozkaya, A. Yu. Sokolov,
    R. Di Remigio, R. M. Richard, J. F. Gonthier, A. M. James,
    H. R. McAlexander, A. Kumar, M. Saitow, X. Wang, B. P. Pritchard,
    P. Verma, H. F. Schaefer III, K. Patkowski, R. A. King, E. F. Valeev,
    F. A. Evangelista, J. M. Turney, T. D. Crawford, and C. D. Sherrill,
    J. Chem. Theory Comput. 13(7) pp 3185--3197 (2017).
    (doi: 10.1021/acs.jctc.7b00174)


                         Additional Contributions by
    P. Kraus, H. Kruse, M. H. Lechner, M. C. Schieber, and R. A. Shaw

    -----------------------------------------------------------------------


    Psi4 started on: Friday, 05 July 2019 01:07PM

    Process ID: 85189
    Host:       comp0002
    PSIDATADIR: /usr/local/psi4/share/psi4
    Memory:     500.0 MiB
    Threads:    1
    
  ==> Input File <==

--------------------------------------------------------------------------
#! STO-3G H2O FullCI
# GEOM: B3LYP/6-31G* taken from http://pubchemqc.riken.jp/cgi-bin/molecularquery.py?name=water

molecule h2o {
O           0.9784782017    0.0224130404    0.0994725951
H           1.9459769733    0.0279738016    0.0505799279
H           0.7023051046    0.1274709488   -0.8231103953
symmetry c1
}

set {
  basis STO-3G
}

ene = energy('fci')


--------------------------------------------------------------------------

*** tstart() called on comp0002
*** at Fri Jul  5 13:07:09 2019

   => Loading Basis Set <=

    Name: STO-3G
    Role: ORBITAL
    Keyword: BASIS
    atoms 1   entry O          line    81 file /usr/local/psi4/share/psi4/basis/sto-3g.gbs 
    atoms 2-3 entry H          line    19 file /usr/local/psi4/share/psi4/basis/sto-3g.gbs 

    There are an even number of electrons - assuming singlet.
    Specify the multiplicity in the molecule input block.


         ---------------------------------------------------------
                                   SCF
            by Justin Turney, Rob Parrish, Andy Simmonett
                             and Daniel Smith
                              RHF Reference
                        1 Threads,    500 MiB Core
         ---------------------------------------------------------

  ==> Geometry <==

    Molecular point group: c1
    Full point group: Cs

    Geometry (in Angstrom), charge = 0, multiplicity = 1:

       Center              X                  Y                   Z               Mass       
    ------------   -----------------  -----------------  -----------------  -----------------
         O           -0.054712566261     0.038684812627     0.000000000000    15.994914619560
         H           -0.005504691623    -0.928813958996     0.000000000000     1.007825032070
         H            0.873832822123     0.314857909733    -0.000000000000     1.007825032070

  Running in c1 symmetry.

  Rotational constants: A =     26.26987  B =     14.41989  C =      9.30968 [cm^-1]
  Rotational constants: A = 787551.03384  B = 432297.41951  C = 279097.19336 [MHz]
  Nuclear repulsion =    9.087406975389447

  Charge       = 0
  Multiplicity = 1
  Electrons    = 10
  Nalpha       = 5
  Nbeta        = 5

  ==> Algorithm <==

  SCF Algorithm Type is PK.
  DIIS enabled.
  MOM disabled.
  Fractional occupation disabled.
  Guess Type is SAD.
  Energy threshold   = 1.00e-08
  Density threshold  = 1.00e-08
  Integral threshold = 0.00e+00

  ==> Primary Basis <==

  Basis Set: STO-3G
    Blend: STO-3G
    Number of shells: 5
    Number of basis function: 7
    Number of Cartesian functions: 7
    Spherical Harmonics?: true
    Max angular momentum: 1

  ==> Pre-Iterations <==

   -------------------------------------------------------
    Irrep   Nso     Nmo     Nalpha   Nbeta   Ndocc  Nsocc
   -------------------------------------------------------
     A          7       7       0       0       0       0
   -------------------------------------------------------
    Total       7       7       5       5       5       0
   -------------------------------------------------------

  ==> Integral Setup <==

  Using in-core PK algorithm.
   Calculation information:
      Number of atoms:                   3
      Number of AO shells:               5
      Number of primitives:             15
      Number of atomic orbitals:         7
      Number of basis functions:         7

      Integral cutoff                 1.00e-12
      Number of threads:                 1

  Performing in-core PK
  Using 812 doubles for integral storage.
  We computed 120 shell quartets total.
  Whereas there are 120 unique shell quartets.

  ==> DiskJK: Disk-Based J/K Matrices <==

    J tasked:                  Yes
    K tasked:                  Yes
    wK tasked:                  No
    Memory (MB):               375
    Schwarz Cutoff:          1E-12

    OpenMP threads:              1

  Minimum eigenvalue in the overlap matrix is 3.4972745801E-01.
  Using Symmetric Orthogonalization.

  SCF Guess: Superposition of Atomic Densities via on-the-fly atomic UHF.

  ==> Iterations <==

                        Total Energy        Delta E     RMS |[F,P]|

   @RHF iter   0:   -74.72038203008988   -7.47204e+01   2.09382e-01 
   @RHF iter   1:   -74.93889224601651   -2.18510e-01   2.45394e-02 
   @RHF iter   2:   -74.96273142146946   -2.38392e-02   5.00032e-03 DIIS
   @RHF iter   3:   -74.96413547800557   -1.40406e-03   2.10148e-03 DIIS
   @RHF iter   4:   -74.96451013891725   -3.74661e-04   3.37844e-04 DIIS
   @RHF iter   5:   -74.96451907772553   -8.93881e-06   2.55608e-05 DIIS
   @RHF iter   6:   -74.96451911103648   -3.33110e-08   5.33940e-06 DIIS
   @RHF iter   7:   -74.96451911281041   -1.77393e-09   9.46832e-07 DIIS
   @RHF iter   8:   -74.96451911288423   -7.38254e-11   1.50913e-07 DIIS
   @RHF iter   9:   -74.96451911288595   -1.71951e-12   2.85564e-08 DIIS
   @RHF iter  10:   -74.96451911288604   -8.52651e-14   1.78541e-09 DIIS

  ==> Post-Iterations <==

    Orbital Energies [Eh]
    ---------------------

    Doubly Occupied:                                                      

       1A    -20.244332     2A     -1.263592     3A     -0.610466  
       4A     -0.453686     5A     -0.391169  

    Virtual:                                                              

       6A      0.595789     7A      0.726284  

    Final Occupation by Irrep:
              A 
    DOCC [     5 ]

  Energy converged.

  @RHF Final Energy:   -74.96451911288604

   => Energetics <=

    Nuclear Repulsion Energy =              9.0874069753894471
    One-Electron Energy =                -122.1773629257411358
    Two-Electron Energy =                  38.1254368374656565
    PCM Polarization Energy =               0.0000000000000000
    Total Energy =                        -74.9645191128860375

    Alert: EFP and PCM quantities not currently incorporated into SCF psivars.

Properties will be evaluated at   0.000000,   0.000000,   0.000000 [a0]

Properties computed using the SCF density matrix

  Nuclear Dipole Moment: [e a0]
     X:     0.8138      Y:    -0.5754      Z:    -0.0000

  Electronic Dipole Moment: [e a0]
     X:    -0.2625      Y:     0.1856      Z:     0.0000

  Dipole Moment: [e a0]
     X:     0.5513      Y:    -0.3898      Z:     0.0000     Total:     0.6751

  Dipole Moment: [D]
     X:     1.4012      Y:    -0.9907      Z:     0.0000     Total:     1.7161


*** tstop() called on comp0002 at Fri Jul  5 13:07:10 2019
Module time:
	user time   =       0.75 seconds =       0.01 minutes
	system time =       1.55 seconds =       0.03 minutes
	total time  =          1 seconds =       0.02 minutes
Total time:
	user time   =       0.75 seconds =       0.01 minutes
	system time =       1.55 seconds =       0.03 minutes
	total time  =          1 seconds =       0.02 minutes
 MINTS: Wrapper to libmints.
   by Justin Turney

   Calculation information:
      Number of threads:                 1
      Number of atoms:                   3
      Number of AO shells:               5
      Number of SO shells:               5
      Number of primitives:             15
      Number of atomic orbitals:         7
      Number of basis functions:         7

      Number of irreps:                  1
      Integral cutoff                 0.00e+00
      Number of functions per irrep: [   7 ]

 OEINTS: Overlap, kinetic, potential, dipole, and quadrupole integrals
         stored in file 35.

      Computing two-electron integrals...done
      Computed 352 non-zero two-electron integrals.
        Stored in file 33.


         ---------------------------------------------------------
                          Configuration Interaction
                            (a 'D E T C I' module)

                 C. David Sherrill, Daniel G. A. Smith, and
                              Matt L. Leininger
         ---------------------------------------------------------


   ==> Parameters <==

    EX LEVEL       =       10      H0 BLOCKSIZE  =     1000
    VAL EX LEVEL   =        0      H0 GUESS SIZE =     1000
    H0COUPLINGSIZE =        0      H0 COUPLING   =       NO
    MAXITER        =       24      NUM PRINT     =       20
    NUM ROOTS      =        1      ICORE         =        1
    PRINT LVL      =        1      FCI           =      YES
    R CONV         = 1.00e-04      MIXED         =      YES
    E CONV         = 1.00e-06      MIXED4        =      YES
    R4S            =       NO      REPL OTF      =       NO
    DIAG METHOD    =      SEM      FOLLOW ROOT   =        0
    PRECONDITIONER = DAVIDSON      UPDATE        = DAVIDSON
    S              =   0.0000      Ms0           =      YES
    GUESS VECTOR   =  H0BLOCK      OPENTYPE      =     NONE
    COLLAPSE SIZE  =        1      HD AVG        = EVANGELISTI
    MAX NUM VECS   =       25      REF SYM       =     AUTO
    IOPEN        =       NO

    EX ALLOW       =  1  1  1  1  1  1  1  1  1  1 
    STATE AVERAGE  =  0(1.00) 

   ==> CI Orbital and Space information <==

   ------------------------------------
               Space    Total     A
   ------------------------------------
                 Nso        7     7
                 Nmo        7     7
               Ndocc        5     5
               Nsocc        0     0
   ------------------------------------
              CI Spaces
   ------------------------------------
        Dropped DOCC        0     0
              Active        7     7
        Dropped UOCC        0     0
   ------------------------------------

   ==> Setting up CI strings <==

    There are 21 alpha and 21 beta strings
    The CI space requires 441 (4.41E+02) determinants and 1 blocks

   ==> Transforming CI integrals <==

	Presorting SO-basis two-electron integrals.
	Sorting File: SO Ints (nn|nn) nbuckets = 1
	Transforming the one-electron integrals and constructing Fock matrices
	Starting first half-transformation.
	Sorting half-transformed integrals.
	First half integral transformation complete.
	Starting second half-transformation.
	Two-electron integral transformation complete.

   ==> Starting CI iterations <==

    H0 Block Eigenvalue = -75.01562452

    Simultaneous Expansion Method (Block Davidson Method)
    Using 1 initial trial vectors

     Iter   Root       Total Energy       Delta E      C RMS

   @CI  0:     0    -75.015624517564   -8.4103E+01   2.0907E-13  
    Warning: Norm of correction (root 0) is < 1.0E-13
   @CI  1:     0    -75.015624517564   0.0000E+00   8.7553E-13 c

   ==> Energetics <==

    SCF energy =          -74.964519112886038
    Total CI energy =     -75.015624517564092

   ==> FCI root 0 information <==

    FCI Root 0 energy =   -75.015624517564092

   The 20 most important determinants:

    *   1    0.986016  (    0,    0)  1AX 2AX 3AX 4AX 5AX 
    *   2   -0.078860  (    8,    8)  1AX 2AX 4AX 5AX 7AX 
    *   3   -0.048596  (    2,    8)  1AX 2AX 3AA 4AB 5AX 6AA 7AB 
    *   4   -0.048596  (    8,    2)  1AX 2AX 3AB 4AA 5AX 6AB 7AA 
    *   5   -0.047904  (    2,    2)  1AX 2AX 3AX 5AX 6AX 
    *   6   -0.043927  (    3,    3)  1AX 2AX 4AX 5AX 6AX 
    *   7   -0.042412  (    7,    7)  1AX 2AX 3AX 5AX 7AX 
    *   8   -0.035516  (    3,    7)  1AX 2AX 3AB 4AA 5AX 6AA 7AB 
    *   9   -0.035516  (    7,    3)  1AX 2AX 3AA 4AB 5AX 6AB 7AA 
    *  10    0.033296  (    2,    4)  1AX 2AA 3AX 4AB 5AX 6AX 
    *  11    0.033296  (    4,    2)  1AX 2AB 3AX 4AA 5AX 6AX 
    *  12   -0.031808  (    4,    4)  1AX 3AX 4AX 5AX 6AX 
    *  13    0.031136  (    4,    8)  1AX 2AB 3AA 4AX 5AX 6AA 7AB 
    *  14    0.031136  (    8,    4)  1AX 2AA 3AB 4AX 5AX 6AB 7AA 
    *  15   -0.026713  (    1,    1)  1AX 2AX 3AX 4AX 6AX 
    *  16    0.020492  (    3,    9)  1AX 2AA 3AB 4AX 5AX 6AA 7AB 
    *  17    0.020492  (    9,    3)  1AX 2AB 3AA 4AX 5AX 6AB 7AA 
    *  18   -0.016641  (    9,    9)  1AX 3AX 4AX 5AX 7AX 
    *  19   -0.013080  (    0,   15)  1AX 2AX 3AA 4AA 5AX 6AB 7AB 
    *  20   -0.013080  (   15,    0)  1AX 2AX 3AB 4AB 5AX 6AA 7AA 

		 "A good bug is a dead bug" 

			 - Starship Troopers

		 "I didn't write FORTRAN.  That's the problem."

			 - Edward Valeev

    Psi4 stopped on: Friday, 05 July 2019 01:07PM
    Psi4 wall time for execution: 0:00:00.68

*** Psi4 exiting successfully. Buy a developer a beer!
