
    -----------------------------------------------------------------------
          Psi4: An Open-Source Ab Initio Electronic Structure Package
                               Psi4 1.2 release

                         Git: Rev {HEAD} 9d4a61c 


    R. M. Parrish, L. A. Burns, D. G. A. Smith, A. C. Simmonett,
    A. E. DePrince III, E. G. Hohenstein, U. Bozkaya, A. Yu. Sokolov,
    R. Di Remigio, R. M. Richard, J. F. Gonthier, A. M. James,
    H. R. McAlexander, A. Kumar, M. Saitow, X. Wang, B. P. Pritchard,
    P. Verma, H. F. Schaefer III, K. Patkowski, R. A. King, E. F. Valeev,
    F. A. Evangelista, J. M. Turney, T. D. Crawford, and C. D. Sherrill,
    J. Chem. Theory Comput. 13(7) pp 3185--3197 (2017).
    (doi: 10.1021/acs.jctc.7b00174)


                         Additional Contributions by
    P. Kraus, H. Kruse, M. H. Lechner, M. C. Schieber, and R. A. Shaw

    -----------------------------------------------------------------------


    Psi4 started on: Wednesday, 10 July 2019 12:22PM

    Process ID: 120093
    Host:       comp0002
    PSIDATADIR: /usr/local/psi4/share/psi4
    Memory:     500.0 MiB
    Threads:    1
    
  ==> Input File <==

--------------------------------------------------------------------------
#! 6-31G N2 FullCI PES

molecule n2 {
N          R    0.0  0.0
N          0.0  0.0  0.0
}

set {
  basis 6-31g
  soscf true
  restart true
}

Rvals=[0.5, 0.6, 0.7, 0.8, 0.9, 1.0, 1.1, 1.2, 1.3, 1.4, 1.5, 1.6, 1.7, 1.8, 1.9, 2.0, 2.1, 2.2, 2.3, 2.4, 2.5, 2.6, 2.7, 2.8, 2.9, 3.0, 3.1, 3.2]
Rvals2=[3.2, 3.5, 4.0, 4.5, 5.0]

for R in Rvals:
   n2.R = R
   hfene=energy('hf')
   ccsdene=energy('ccsd(t)')
   mp2ene=energy('mp2')
   print ('%f %f %f %f' % ( R, hfene, mp2ene, ccsdene) )
#  clean()  

for R in Rvals2:
   n2.R = R
   hfene=energy('hf')
   print ('%f %f' % ( R, hfene) )
--------------------------------------------------------------------------
Molecule: geometry: Molecule is not complete, please use 'update_geometry'
                    once all variables are set.

Molecule: Setting a variable updates the molecular geometry, for
          cartesian molecules this can lead to surprising behaviour.
          Freezing COM and orientation to prevent this.

Molecule: Setting geometry variable R to 0.500000

*** tstart() called on comp0002
*** at Wed Jul 10 12:22:58 2019

   => Loading Basis Set <=

    Name: 6-31G
    Role: ORBITAL
    Keyword: BASIS
    atoms 1-2 entry N          line   102 file /usr/local/psi4/share/psi4/basis/6-31g.gbs 

    There are an even number of electrons - assuming singlet.
    Specify the multiplicity in the molecule input block.


         ---------------------------------------------------------
                                   SCF
            by Justin Turney, Rob Parrish, Andy Simmonett
                             and Daniel Smith
                              RHF Reference
                        1 Threads,    500 MiB Core
         ---------------------------------------------------------

  ==> Geometry <==

    Molecular point group: c2v
    Full point group: C_inf_v

    Geometry (in Angstrom), charge = 0, multiplicity = 1:

       Center              X                  Y                   Z               Mass       
    ------------   -----------------  -----------------  -----------------  -----------------
         N            0.500000000000     0.000000000000     0.000000000000    14.003074004780
         N            0.000000000000     0.000000000000     0.000000000000    14.003074004780

  Running in c2v symmetry.

  Rotational constants: A = ************  B =      4.81541  C =      4.81541 [cm^-1]
  Rotational constants: A = ************  B = 144362.30354  C = 144362.30354 [MHz]
  Nuclear repulsion =   51.859366441819994

  Charge       = 0
  Multiplicity = 1
  Electrons    = 14
  Nalpha       = 7
  Nbeta        = 7

  ==> Algorithm <==

  SCF Algorithm Type is DF.
  DIIS enabled.
  MOM disabled.
  Fractional occupation disabled.
  Guess Type is SAD.
  Energy threshold   = 1.00e-06
  Density threshold  = 1.00e-06
  Integral threshold = 0.00e+00

  ==> Primary Basis <==

  Basis Set: 6-31G
    Blend: 6-31G
    Number of shells: 10
    Number of basis function: 18
    Number of Cartesian functions: 18
    Spherical Harmonics?: false
    Max angular momentum: 1

   => Loading Basis Set <=

    Name: (6-31G AUX)
    Role: JKFIT
    Keyword: DF_BASIS_SCF
    atoms 1-2 entry N          line   171 file /usr/local/psi4/share/psi4/basis/cc-pvdz-jkfit.gbs 

  ==> Pre-Iterations <==

   -------------------------------------------------------
    Irrep   Nso     Nmo     Nalpha   Nbeta   Ndocc  Nsocc
   -------------------------------------------------------
     A1        10      10       0       0       0       0
     A2         0       0       0       0       0       0
     B1         4       4       0       0       0       0
     B2         4       4       0       0       0       0
   -------------------------------------------------------
    Total      18      18       7       7       7       0
   -------------------------------------------------------

  ==> Integral Setup <==

  ==> DiskDFJK: Density-Fitted J/K Matrices <==

    J tasked:                  Yes
    K tasked:                  Yes
    wK tasked:                  No
    OpenMP threads:              1
    Integrals threads:           1
    Memory (MB):               375
    Algorithm:                Core
    Integral Cache:           NONE
    Schwarz Cutoff:          1E-12
    Fitting Condition:       1E-12

   => Auxiliary Basis Set <=

  Basis Set: (6-31G AUX)
    Blend: CC-PVDZ-JKFIT
    Number of shells: 48
    Number of basis function: 162
    Number of Cartesian functions: 162
    Spherical Harmonics?: false
    Max angular momentum: 3

  Minimum eigenvalue in the overlap matrix is 8.6499039983E-05.
  Using Symmetric Orthogonalization.

  SCF Guess: Superposition of Atomic Densities via on-the-fly atomic UHF.

  ==> Iterations <==

                           Total Energy        Delta E     RMS |[F,P]|

   @DF-RHF iter   0:  -108.39682022905777   -1.08397e+02   6.46459e-01 
   @DF-RHF iter   1:  -102.90700752651030    5.48981e+00   2.45088e-02 
   @DF-RHF iter   2:  -102.95079722871758   -4.37897e-02   4.89635e-03 DIIS
   @DF-RHF iter   3:  -102.95277653721968   -1.97931e-03   1.27363e-03 DIIS
   @DF-RHF iter   4:  -102.95295885825529   -1.82321e-04   1.11561e-04 SOSCF, nmicro = 4
   @DF-RHF iter   5:  -102.95296010886869   -1.25061e-06   4.63455e-07 SOSCF, nmicro = 4
   @DF-RHF iter   6:  -102.95296010887147   -2.77112e-12   4.95174e-10 SOSCF, nmicro = conv

  ==> Post-Iterations <==

    Orbital Energies [Eh]
    ---------------------

    Doubly Occupied:                                                      

       1A1   -16.528397     2A1   -15.835366     3A1    -1.471182  
       1B1    -1.190891     1B2    -1.190891     4A1    -0.544169  
       5A1    -0.522554  

    Virtual:                                                              

       2B2     0.526577     2B1     0.526577     3B1     0.567627  
       3B2     0.567627     6A1     0.664595     7A1     0.709841  
       8A1     1.005831     9A1     1.507031     4B2     1.639737  
       4B1     1.639737    10A1     9.841642  

    Final Occupation by Irrep:
             A1    A2    B1    B2 
    DOCC [     5,    0,    1,    1 ]

  Energy converged.

  @DF-RHF Final Energy:  -102.95296010887147

   => Energetics <=

    Nuclear Repulsion Energy =             51.8593664418199936
    One-Electron Energy =                -235.0577542538745774
    Two-Electron Energy =                  80.2454277031831253
    Total Energy =                       -102.9529601088714656



Properties will be evaluated at   0.000000,   0.000000,   0.000000 [a0]

Properties computed using the SCF density matrix

  Nuclear Dipole Moment: [e a0]
     X:     6.6140      Y:     0.0000      Z:     0.0000

  Electronic Dipole Moment: [e a0]
     X:    -6.6140      Y:     0.0000      Z:     0.0000

  Dipole Moment: [e a0]
     X:     0.0000      Y:     0.0000      Z:     0.0000     Total:     0.0000

  Dipole Moment: [D]
     X:     0.0000      Y:     0.0000      Z:     0.0000     Total:     0.0000


*** tstop() called on comp0002 at Wed Jul 10 12:22:59 2019
Module time:
	user time   =       0.70 seconds =       0.01 minutes
	system time =       1.31 seconds =       0.02 minutes
	total time  =          1 seconds =       0.02 minutes
Total time:
	user time   =       0.70 seconds =       0.01 minutes
	system time =       1.31 seconds =       0.02 minutes
	total time  =          1 seconds =       0.02 minutes

*** tstart() called on comp0002
*** at Wed Jul 10 12:22:59 2019

   => Loading Basis Set <=

    Name: 6-31G
    Role: ORBITAL
    Keyword: BASIS
    atoms 1-2 entry N          line   102 file /usr/local/psi4/share/psi4/basis/6-31g.gbs 


         ---------------------------------------------------------
                                   SCF
            by Justin Turney, Rob Parrish, Andy Simmonett
                             and Daniel Smith
                              RHF Reference
                        1 Threads,    500 MiB Core
         ---------------------------------------------------------

  ==> Geometry <==

    Molecular point group: c2v
    Full point group: C_inf_v

    Geometry (in Angstrom), charge = 0, multiplicity = 1:

       Center              X                  Y                   Z               Mass       
    ------------   -----------------  -----------------  -----------------  -----------------
         N            0.500000000000     0.000000000000     0.000000000000    14.003074004780
         N            0.000000000000     0.000000000000     0.000000000000    14.003074004780

  Running in c2v symmetry.

  Rotational constants: A = ************  B =      4.81541  C =      4.81541 [cm^-1]
  Rotational constants: A = ************  B = 144362.30354  C = 144362.30354 [MHz]
  Nuclear repulsion =   51.859366441819994

  Charge       = 0
  Multiplicity = 1
  Electrons    = 14
  Nalpha       = 7
  Nbeta        = 7

  ==> Algorithm <==

  SCF Algorithm Type is PK.
  DIIS enabled.
  MOM disabled.
  Fractional occupation disabled.
  Guess Type is SAD.
  Energy threshold   = 1.00e-08
  Density threshold  = 1.00e-08
  Integral threshold = 0.00e+00

  ==> Primary Basis <==

  Basis Set: 6-31G
    Blend: 6-31G
    Number of shells: 10
    Number of basis function: 18
    Number of Cartesian functions: 18
    Spherical Harmonics?: false
    Max angular momentum: 1

  ==> Pre-Iterations <==

   -------------------------------------------------------
    Irrep   Nso     Nmo     Nalpha   Nbeta   Ndocc  Nsocc
   -------------------------------------------------------
     A1        10      10       0       0       0       0
     A2         0       0       0       0       0       0
     B1         4       4       0       0       0       0
     B2         4       4       0       0       0       0
   -------------------------------------------------------
    Total      18      18       7       7       7       0
   -------------------------------------------------------

  ==> Integral Setup <==

  Using in-core PK algorithm.
   Calculation information:
      Number of atoms:                   2
      Number of AO shells:              10
      Number of primitives:             28
      Number of atomic orbitals:        18
      Number of basis functions:        18

      Integral cutoff                 1.00e-12
      Number of threads:                 1

  Performing in-core PK
  Using 29412 doubles for integral storage.
  We computed 1540 shell quartets total.
  Whereas there are 1540 unique shell quartets.

  ==> DiskJK: Disk-Based J/K Matrices <==

    J tasked:                  Yes
    K tasked:                  Yes
    wK tasked:                  No
    Memory (MB):               375
    Schwarz Cutoff:          1E-12

    OpenMP threads:              1

  Minimum eigenvalue in the overlap matrix is 8.6499039983E-05.
  Using Symmetric Orthogonalization.

  SCF Guess: Superposition of Atomic Densities via on-the-fly atomic UHF.

  ==> Iterations <==

                        Total Energy        Delta E     RMS |[F,P]|

   @RHF iter   0:  -108.39694814818277   -1.08397e+02   6.46461e-01 
   @RHF iter   1:  -102.90727792821488    5.48967e+00   2.45131e-02 
   @RHF iter   2:  -102.95107567520364   -4.37977e-02   4.89648e-03 DIIS
   @RHF iter   3:  -102.95305537526758   -1.97970e-03   1.27368e-03 DIIS
   @RHF iter   4:  -102.95323770031038   -1.82325e-04   1.11573e-04 SOSCF, nmicro = 4
   @RHF iter   5:  -102.95323895115730   -1.25085e-06   4.63179e-07 SOSCF, nmicro = 4
   @RHF iter   6:  -102.95323895116010   -2.79954e-12   4.95323e-10 SOSCF, nmicro = conv

  ==> Post-Iterations <==

    Orbital Energies [Eh]
    ---------------------

    Doubly Occupied:                                                      

       1A1   -16.528361     2A1   -15.835299     3A1    -1.471148  
       1B1    -1.190962     1B2    -1.190962     4A1    -0.544148  
       5A1    -0.522555  

    Virtual:                                                              

       2B2     0.526561     2B1     0.526561     3B1     0.567577  
       3B2     0.567577     6A1     0.664618     7A1     0.709839  
       8A1     1.005832     9A1     1.507046     4B2     1.639676  
       4B1     1.639676    10A1     9.841678  

    Final Occupation by Irrep:
             A1    A2    B1    B2 
    DOCC [     5,    0,    1,    1 ]

  Energy converged.

  @RHF Final Energy:  -102.95323895116010

   => Energetics <=

    Nuclear Repulsion Energy =             51.8593664418199936
    One-Electron Energy =                -235.0583398177918752
    Two-Electron Energy =                  80.2457344248117863
    Total Energy =                       -102.9532389511601025



Properties will be evaluated at   0.000000,   0.000000,   0.000000 [a0]

Properties computed using the SCF density matrix

  Nuclear Dipole Moment: [e a0]
     X:     6.6140      Y:     0.0000      Z:     0.0000

  Electronic Dipole Moment: [e a0]
     X:    -6.6140      Y:     0.0000      Z:     0.0000

  Dipole Moment: [e a0]
     X:    -0.0000      Y:     0.0000      Z:     0.0000     Total:     0.0000

  Dipole Moment: [D]
     X:    -0.0000      Y:     0.0000      Z:     0.0000     Total:     0.0000


*** tstop() called on comp0002 at Wed Jul 10 12:22:59 2019
Module time:
	user time   =       0.50 seconds =       0.01 minutes
	system time =       1.20 seconds =       0.02 minutes
	total time  =          0 seconds =       0.00 minutes
Total time:
	user time   =       1.22 seconds =       0.02 minutes
	system time =       2.59 seconds =       0.04 minutes
	total time  =          1 seconds =       0.02 minutes
 MINTS: Wrapper to libmints.
   by Justin Turney

   Calculation information:
      Number of threads:                 1
      Number of atoms:                   2
      Number of AO shells:              10
      Number of SO shells:              10
      Number of primitives:             28
      Number of atomic orbitals:        18
      Number of basis functions:        18

      Number of irreps:                  4
      Integral cutoff                 0.00e+00
      Number of functions per irrep: [  10    0    4    4 ]

 OEINTS: Overlap, kinetic, potential, dipole, and quadrupole integrals
         stored in file 35.

      Computing two-electron integrals...done
      Computed 4350 non-zero two-electron integrals.
        Stored in file 33.


*** tstart() called on comp0002
*** at Wed Jul 10 12:22:59 2019


	Wfn Parameters:
	--------------------
	Wavefunction         = CCSD_T
	Number of irreps     = 4
	Number of MOs        = 18
	Number of active MOs = 18
	AO-Basis             = NONE
	Semicanonical        = false
	Reference            = RHF
	Print Level          = 1

	IRREP	# MOs	# FZDC	# DOCC	# SOCC	# VIRT	# FZVR
	-----	-----	------	------	------	------	------
	 A1	   10	    0	    5	    0	    5	    0
	 A2	   0	    0	    0	    0	    0	    0
	 B1	   4	    0	    1	    0	    3	    0
	 B2	   4	    0	    1	    0	    3	    0
	Transforming integrals...
	IWL integrals will be deleted.
	(OO|OO)...
	Presorting SO-basis two-electron integrals.
	Sorting File: SO Ints (nn|nn) nbuckets = 1
	Transforming the one-electron integrals and constructing Fock matrices
	Starting first half-transformation.
	Sorting half-transformed integrals.
	First half integral transformation complete.
	Starting second half-transformation.
	Two-electron integral transformation complete.
	(OO|OV)...
	Starting second half-transformation.
	Two-electron integral transformation complete.
	(OO|VV)...
	Starting second half-transformation.
	Two-electron integral transformation complete.
	(OV|OO)...
	Starting first half-transformation.
	Sorting half-transformed integrals.
	First half integral transformation complete.
	Starting second half-transformation.
	Two-electron integral transformation complete.
	(OV|OV)...
	Starting second half-transformation.
	Two-electron integral transformation complete.
	(OV|VV)...
	Starting second half-transformation.
	Two-electron integral transformation complete.
	(VV|OO)...
	Starting first half-transformation.
	Sorting half-transformed integrals.
	First half integral transformation complete.
	Starting second half-transformation.
	Two-electron integral transformation complete.
	(VV|OV)...
	Starting second half-transformation.
	Two-electron integral transformation complete.
	(VV|VV)...
	Starting second half-transformation.
	Two-electron integral transformation complete.
	Frozen core energy     =      0.00000000000000

	Size of irrep 0 of <ab|cd> integrals:      0.002 (MW) /      0.015 (MB)
	Size of irrep 1 of <ab|cd> integrals:      0.000 (MW) /      0.003 (MB)
	Size of irrep 2 of <ab|cd> integrals:      0.001 (MW) /      0.007 (MB)
	Size of irrep 3 of <ab|cd> integrals:      0.001 (MW) /      0.007 (MB)
	Total:                                     0.004 (MW) /      0.032 (MB)

	Size of irrep 0 of <ia|bc> integrals:      0.001 (MW) /      0.011 (MB)
	Size of irrep 1 of <ia|bc> integrals:      0.000 (MW) /      0.001 (MB)
	Size of irrep 2 of <ia|bc> integrals:      0.001 (MW) /      0.005 (MB)
	Size of irrep 3 of <ia|bc> integrals:      0.001 (MW) /      0.005 (MB)
	Total:                                     0.003 (MW) /      0.021 (MB)

	Size of irrep 0 of tijab amplitudes:       0.001 (MW) /      0.009 (MB)
	Size of irrep 1 of tijab amplitudes:       0.000 (MW) /      0.000 (MB)
	Size of irrep 2 of tijab amplitudes:       0.000 (MW) /      0.002 (MB)
	Size of irrep 3 of tijab amplitudes:       0.000 (MW) /      0.002 (MB)
	Total:                                     0.002 (MW) /      0.014 (MB)

	Nuclear Rep. energy          =     51.85936644181999
	SCF energy                   =   -102.95323895116010
	One-electron energy          =   -235.05833979105930
	Two-electron energy          =     80.24573439807934
	Reference energy             =   -102.95323895115996

*** tstop() called on comp0002 at Wed Jul 10 12:22:59 2019
Module time:
	user time   =       0.10 seconds =       0.00 minutes
	system time =       0.25 seconds =       0.00 minutes
	total time  =          0 seconds =       0.00 minutes
Total time:
	user time   =       1.43 seconds =       0.02 minutes
	system time =       3.08 seconds =       0.05 minutes
	total time  =          1 seconds =       0.02 minutes

*** tstart() called on comp0002
*** at Wed Jul 10 12:22:59 2019

            **************************
            *                        *
            *        CCENERGY        *
            *                        *
            **************************

    Nuclear Rep. energy (wfn)     =   51.859366441819994
    SCF energy          (wfn)     = -102.953238951160102
    Reference energy    (file100) = -102.953238951159960

    Input parameters:
    -----------------
    Wave function   =     CCSD_T
    Reference wfn   =     RHF
    Brueckner       =     No
    Memory (Mbytes) =     524.3
    Maxiter         =     50
    R_Convergence   =     1.0e-07
    E_Convergence   =     1.0e-06
    Restart         =     Yes
    DIIS            =     Yes
    AO Basis        =     NONE
    ABCD            =     NEW
    Cache Level     =     2
    Cache Type      =     LOW
    Print Level     =     1
    Num. of threads =     1
    # Amps to Print =     10
    Print MP2 Amps? =     No
    Analyze T2 Amps =     No
    Print Pair Ener =     No
    Local CC        =     No
    SCS-MP2         =     False
    SCSN-MP2        =     False
    SCS-CCSD        =     False

MP2 correlation energy -0.0917288686784485
                Solving CC Amplitude Equations
                ------------------------------
  Iter             Energy              RMS        T1Diag      D1Diag    New D1Diag    D2Diag
  ----     ---------------------    ---------   ----------  ----------  ----------   --------
     0        -0.091728868678449    0.000e+00    0.000000    0.000000    0.000000    0.074233
     1        -0.100429704421224    2.488e-02    0.003292    0.009109    0.009109    0.088072
     2        -0.103124746955749    7.520e-03    0.004453    0.012846    0.012846    0.093448
     3        -0.103232025887344    1.301e-03    0.004712    0.013842    0.013842    0.093998
     4        -0.103232750199850    2.425e-04    0.004744    0.014006    0.014006    0.094027
     5        -0.103232288803898    3.932e-05    0.004749    0.014038    0.014038    0.094020
     6        -0.103232052115512    6.316e-06    0.004750    0.014044    0.014044    0.094019
     7        -0.103232018547044    8.936e-07    0.004751    0.014045    0.014045    0.094019
     8        -0.103232015477705    2.184e-07    0.004751    0.014045    0.014045    0.094019
     9        -0.103232015741271    3.109e-08    0.004751    0.014045    0.014045    0.094019

    Iterations converged.


    Largest TIA Amplitudes:
              4   1        -0.0134828498
              3   0        -0.0094698577
              2   2        -0.0034034997
              2   1        -0.0032031479
              4   2         0.0030541082
              5   6        -0.0024051938
              6   9        -0.0024051938
              3   3        -0.0011427322
              3   4         0.0006339362
              0   2        -0.0001379015

    Largest TIjAb Amplitudes:
      4   4   1   1        -0.0320418914
      3   3   5   5        -0.0312667569
      3   3   8   8        -0.0312667569
      5   5   7   7        -0.0309265454
      6   6  10  10        -0.0309265454
      3   4   0   1        -0.0248069252
      4   3   1   0        -0.0248069252
      3   3   0   0        -0.0229568580
      5   6   7  10        -0.0219904628
      6   5  10   7        -0.0219904628

    SCF energy       (wfn)                    = -102.953238951160102
    Reference energy (file100)                = -102.953238951159960

    Opposite-spin MP2 correlation energy      =   -0.072503579835149
    Same-spin MP2 correlation energy          =   -0.019225288843300
    MP2 correlation energy                    =   -0.091728868678449
      * MP2 total energy                      = -103.044967819838405

    Opposite-spin CCSD correlation energy     =   -0.084304629537291
    Same-spin CCSD correlation energy         =   -0.018927386203974
    CCSD correlation energy                   =   -0.103232015741271
      * CCSD total energy                     = -103.056470966901230


*** tstop() called on comp0002 at Wed Jul 10 12:22:59 2019
Module time:
	user time   =       0.09 seconds =       0.00 minutes
	system time =       0.28 seconds =       0.00 minutes
	total time  =          0 seconds =       0.00 minutes
Total time:
	user time   =       1.52 seconds =       0.03 minutes
	system time =       3.36 seconds =       0.06 minutes
	total time  =          1 seconds =       0.02 minutes

*** tstart() called on comp0002
*** at Wed Jul 10 12:22:59 2019

            **************************
            *                        *
            *        CCTRIPLES       *
            *                        *
            **************************


    Wave function   =    CCSD_T
    Reference wfn   =      RHF

    Nuclear Rep. energy (wfn)                =   51.859366441819994
    SCF energy          (wfn)                = -102.953238951160102
    Reference energy    (file100)            = -102.953238951159960
    CCSD energy         (file100)            =   -0.103232015741271
    Total CCSD energy   (file100)            = -103.056470966901230

    Number of ijk index combinations:               84
    Memory available in words        :        65536000
    ~Words needed per explicit thread:             500
    Number of threads for explicit ijk threading:    1

    (T) energy                                =   -0.001345899483237
      * CCSD(T) total energy                  = -103.057816866384471


*** tstop() called on comp0002 at Wed Jul 10 12:22:59 2019
Module time:
	user time   =       0.03 seconds =       0.00 minutes
	system time =       0.02 seconds =       0.00 minutes
	total time  =          0 seconds =       0.00 minutes
Total time:
	user time   =       1.55 seconds =       0.03 minutes
	system time =       3.38 seconds =       0.06 minutes
	total time  =          1 seconds =       0.02 minutes
    SCF Algorithm Type (re)set to DF.

*** tstart() called on comp0002
*** at Wed Jul 10 12:22:59 2019

   => Loading Basis Set <=

    Name: 6-31G
    Role: ORBITAL
    Keyword: BASIS
    atoms 1-2 entry N          line   102 file /usr/local/psi4/share/psi4/basis/6-31g.gbs 


         ---------------------------------------------------------
                                   SCF
            by Justin Turney, Rob Parrish, Andy Simmonett
                             and Daniel Smith
                              RHF Reference
                        1 Threads,    500 MiB Core
         ---------------------------------------------------------

  ==> Geometry <==

    Molecular point group: c2v
    Full point group: C_inf_v

    Geometry (in Angstrom), charge = 0, multiplicity = 1:

       Center              X                  Y                   Z               Mass       
    ------------   -----------------  -----------------  -----------------  -----------------
         N            0.500000000000     0.000000000000     0.000000000000    14.003074004780
         N            0.000000000000     0.000000000000     0.000000000000    14.003074004780

  Running in c2v symmetry.

  Rotational constants: A = ************  B =      4.81541  C =      4.81541 [cm^-1]
  Rotational constants: A = ************  B = 144362.30354  C = 144362.30354 [MHz]
  Nuclear repulsion =   51.859366441819994

  Charge       = 0
  Multiplicity = 1
  Electrons    = 14
  Nalpha       = 7
  Nbeta        = 7

  ==> Algorithm <==

  SCF Algorithm Type is DF.
  DIIS enabled.
  MOM disabled.
  Fractional occupation disabled.
  Guess Type is SAD.
  Energy threshold   = 1.00e-08
  Density threshold  = 1.00e-08
  Integral threshold = 0.00e+00

  ==> Primary Basis <==

  Basis Set: 6-31G
    Blend: 6-31G
    Number of shells: 10
    Number of basis function: 18
    Number of Cartesian functions: 18
    Spherical Harmonics?: false
    Max angular momentum: 1

   => Loading Basis Set <=

    Name: (6-31G AUX)
    Role: JKFIT
    Keyword: DF_BASIS_SCF
    atoms 1-2 entry N          line   171 file /usr/local/psi4/share/psi4/basis/cc-pvdz-jkfit.gbs 

  ==> Pre-Iterations <==

   -------------------------------------------------------
    Irrep   Nso     Nmo     Nalpha   Nbeta   Ndocc  Nsocc
   -------------------------------------------------------
     A1        10      10       0       0       0       0
     A2         0       0       0       0       0       0
     B1         4       4       0       0       0       0
     B2         4       4       0       0       0       0
   -------------------------------------------------------
    Total      18      18       7       7       7       0
   -------------------------------------------------------

  ==> Integral Setup <==

  ==> DiskDFJK: Density-Fitted J/K Matrices <==

    J tasked:                  Yes
    K tasked:                  Yes
    wK tasked:                  No
    OpenMP threads:              1
    Integrals threads:           1
    Memory (MB):               375
    Algorithm:                Core
    Integral Cache:           NONE
    Schwarz Cutoff:          1E-12
    Fitting Condition:       1E-12

   => Auxiliary Basis Set <=

  Basis Set: (6-31G AUX)
    Blend: CC-PVDZ-JKFIT
    Number of shells: 48
    Number of basis function: 162
    Number of Cartesian functions: 162
    Spherical Harmonics?: false
    Max angular momentum: 3

  Minimum eigenvalue in the overlap matrix is 8.6499039983E-05.
  Using Symmetric Orthogonalization.

  SCF Guess: Superposition of Atomic Densities via on-the-fly atomic UHF.

  ==> Iterations <==

                           Total Energy        Delta E     RMS |[F,P]|

   @DF-RHF iter   0:  -108.39682022905777   -1.08397e+02   6.46459e-01 
   @DF-RHF iter   1:  -102.90700752651030    5.48981e+00   2.45088e-02 
   @DF-RHF iter   2:  -102.95079722871758   -4.37897e-02   4.89635e-03 DIIS
   @DF-RHF iter   3:  -102.95277653721968   -1.97931e-03   1.27363e-03 DIIS
   @DF-RHF iter   4:  -102.95295885825529   -1.82321e-04   1.11561e-04 SOSCF, nmicro = 4
   @DF-RHF iter   5:  -102.95296010886869   -1.25061e-06   4.63455e-07 SOSCF, nmicro = 4
   @DF-RHF iter   6:  -102.95296010887147   -2.77112e-12   4.95174e-10 SOSCF, nmicro = conv

  ==> Post-Iterations <==

    Orbital Energies [Eh]
    ---------------------

    Doubly Occupied:                                                      

       1A1   -16.528397     2A1   -15.835366     3A1    -1.471182  
       1B1    -1.190891     1B2    -1.190891     4A1    -0.544169  
       5A1    -0.522554  

    Virtual:                                                              

       2B2     0.526577     2B1     0.526577     3B1     0.567627  
       3B2     0.567627     6A1     0.664595     7A1     0.709841  
       8A1     1.005831     9A1     1.507031     4B2     1.639737  
       4B1     1.639737    10A1     9.841642  

    Final Occupation by Irrep:
             A1    A2    B1    B2 
    DOCC [     5,    0,    1,    1 ]

  Energy converged.

  @DF-RHF Final Energy:  -102.95296010887147

   => Energetics <=

    Nuclear Repulsion Energy =             51.8593664418199936
    One-Electron Energy =                -235.0577542538745774
    Two-Electron Energy =                  80.2454277031831253
    PCM Polarization Energy =               0.0000000000000000
    Total Energy =                       -102.9529601088714656

    Alert: EFP and PCM quantities not currently incorporated into SCF psivars.

Properties will be evaluated at   0.000000,   0.000000,   0.000000 [a0]

Properties computed using the SCF density matrix

  Nuclear Dipole Moment: [e a0]
     X:     6.6140      Y:     0.0000      Z:     0.0000

  Electronic Dipole Moment: [e a0]
     X:    -6.6140      Y:     0.0000      Z:     0.0000

  Dipole Moment: [e a0]
     X:     0.0000      Y:     0.0000      Z:     0.0000     Total:     0.0000

  Dipole Moment: [D]
     X:     0.0000      Y:     0.0000      Z:     0.0000     Total:     0.0000


*** tstop() called on comp0002 at Wed Jul 10 12:23:00 2019
Module time:
	user time   =       0.77 seconds =       0.01 minutes
	system time =       2.00 seconds =       0.03 minutes
	total time  =          1 seconds =       0.02 minutes
Total time:
	user time   =       2.32 seconds =       0.04 minutes
	system time =       5.39 seconds =       0.09 minutes
	total time  =          2 seconds =       0.03 minutes

*** tstart() called on comp0002
*** at Wed Jul 10 12:23:00 2019


  //>>>>>>>>>>>>>>>>>>>>>>>>>>>>>>>>>>>//
  //               DFMP2               //
  //<<<<<<<<<<<<<<<<<<<<<<<<<<<<<<<<<<<//

   => Loading Basis Set <=

    Name: (6-31G AUX)
    Role: RIFIT
    Keyword: DF_BASIS_MP2
    atoms 1-2 entry N          line   197 file /usr/local/psi4/share/psi4/basis/cc-pvdz-ri.gbs 

	 --------------------------------------------------------
	                          DF-MP2                         
	      2nd-Order Density-Fitted Moller-Plesset Theory     
	              RMP2 Wavefunction,   1 Threads             
	                                                         
	        Rob Parrish, Justin Turney, Andy Simmonett,      
	           Ed Hohenstein, and C. David Sherrill          
	 --------------------------------------------------------

   => Auxiliary Basis Set <=

  Basis Set: (6-31G AUX)
    Blend: CC-PVDZ-RI
    Number of shells: 36
    Number of basis function: 112
    Number of Cartesian functions: 132
    Spherical Harmonics?: true
    Max angular momentum: 3

	 --------------------------------------------------------
	                 NBF =    18, NAUX =   112
	 --------------------------------------------------------
	   CLASS    FOCC     OCC    AOCC    AVIR     VIR    FVIR
	   PAIRS       0       7       7      11      11       0
	 --------------------------------------------------------

	-----------------------------------------------------------
	 ==================> DF-MP2 Energies <==================== 
	-----------------------------------------------------------
	 Reference Energy          =    -102.9529601088714656 [Eh]
	 Singles Energy            =      -0.0000000000000000 [Eh]
	 Same-Spin Energy          =      -0.0192302436976885 [Eh]
	 Opposite-Spin Energy      =      -0.0724860387243888 [Eh]
	 Correlation Energy        =      -0.0917162824220773 [Eh]
	 Total Energy              =    -103.0446763912935495 [Eh]
	-----------------------------------------------------------
	 ================> DF-SCS-MP2 Energies <================== 
	-----------------------------------------------------------
	 SCS Same-Spin Scale       =       0.3333333333333333 [-]
	 SCS Opposite-Spin Scale   =       1.2000000000000000 [-]
	 SCS Same-Spin Energy      =      -0.0064100812325628 [Eh]
	 SCS Opposite-Spin Energy  =      -0.0869832464692666 [Eh]
	 SCS Correlation Energy    =      -0.0933933277018294 [Eh]
	 SCS Total Energy          =    -103.0463534365732983 [Eh]
	-----------------------------------------------------------


*** tstop() called on comp0002 at Wed Jul 10 12:23:00 2019
Module time:
	user time   =       0.36 seconds =       0.01 minutes
	system time =       1.16 seconds =       0.02 minutes
	total time  =          0 seconds =       0.00 minutes
Total time:
	user time   =       2.68 seconds =       0.04 minutes
	system time =       6.56 seconds =       0.11 minutes
	total time  =          2 seconds =       0.03 minutes
Molecule: Setting geometry variable R to 0.600000

*** tstart() called on comp0002
*** at Wed Jul 10 12:23:00 2019

   => Loading Basis Set <=

    Name: 6-31G
    Role: ORBITAL
    Keyword: BASIS
    atoms 1-2 entry N          line   102 file /usr/local/psi4/share/psi4/basis/6-31g.gbs 


         ---------------------------------------------------------
                                   SCF
            by Justin Turney, Rob Parrish, Andy Simmonett
                             and Daniel Smith
                              RHF Reference
                        1 Threads,    500 MiB Core
         ---------------------------------------------------------

  ==> Geometry <==

    Molecular point group: c2v
    Full point group: C_inf_v

    Geometry (in Angstrom), charge = 0, multiplicity = 1:

       Center              X                  Y                   Z               Mass       
    ------------   -----------------  -----------------  -----------------  -----------------
         N            0.600000000000     0.000000000000     0.000000000000    14.003074004780
         N            0.000000000000     0.000000000000     0.000000000000    14.003074004780

  Running in c2v symmetry.

  Rotational constants: A = ************  B =      3.34403  C =      3.34403 [cm^-1]
  Rotational constants: A = ************  B = 100251.59968  C = 100251.59968 [MHz]
  Nuclear repulsion =   43.216138701516670

  Charge       = 0
  Multiplicity = 1
  Electrons    = 14
  Nalpha       = 7
  Nbeta        = 7

  ==> Algorithm <==

  SCF Algorithm Type is DF.
  DIIS enabled.
  MOM disabled.
  Fractional occupation disabled.
  Guess Type is SAD.
  Energy threshold   = 1.00e-06
  Density threshold  = 1.00e-06
  Integral threshold = 0.00e+00

  ==> Primary Basis <==

  Basis Set: 6-31G
    Blend: 6-31G
    Number of shells: 10
    Number of basis function: 18
    Number of Cartesian functions: 18
    Spherical Harmonics?: false
    Max angular momentum: 1

   => Loading Basis Set <=

    Name: (6-31G AUX)
    Role: JKFIT
    Keyword: DF_BASIS_SCF
    atoms 1-2 entry N          line   171 file /usr/local/psi4/share/psi4/basis/cc-pvdz-jkfit.gbs 

  ==> Pre-Iterations <==

   -------------------------------------------------------
    Irrep   Nso     Nmo     Nalpha   Nbeta   Ndocc  Nsocc
   -------------------------------------------------------
     A1        10      10       0       0       0       0
     A2         0       0       0       0       0       0
     B1         4       4       0       0       0       0
     B2         4       4       0       0       0       0
   -------------------------------------------------------
    Total      18      18       7       7       7       0
   -------------------------------------------------------

  ==> Integral Setup <==

  ==> DiskDFJK: Density-Fitted J/K Matrices <==

    J tasked:                  Yes
    K tasked:                  Yes
    wK tasked:                  No
    OpenMP threads:              1
    Integrals threads:           1
    Memory (MB):               375
    Algorithm:                Core
    Integral Cache:           NONE
    Schwarz Cutoff:          1E-12
    Fitting Condition:       1E-12

   => Auxiliary Basis Set <=

  Basis Set: (6-31G AUX)
    Blend: CC-PVDZ-JKFIT
    Number of shells: 48
    Number of basis function: 162
    Number of Cartesian functions: 162
    Spherical Harmonics?: false
    Max angular momentum: 3

  Minimum eigenvalue in the overlap matrix is 2.5300434008E-04.
  Using Symmetric Orthogonalization.

  SCF Guess: Superposition of Atomic Densities via on-the-fly atomic UHF.

  ==> Iterations <==

                           Total Energy        Delta E     RMS |[F,P]|

   @DF-RHF iter   0:  -109.86442799993338   -1.09864e+02   5.56542e-01 
   @DF-RHF iter   1:  -105.90887880727445    3.95555e+00   1.78950e-02 
   @DF-RHF iter   2:  -105.93194490222858   -2.30661e-02   3.44923e-03 DIIS
   @DF-RHF iter   3:  -105.93295940768121   -1.01451e-03   8.51550e-04 DIIS
   @DF-RHF iter   4:  -105.93303725897027   -7.78513e-05   8.78109e-05 SOSCF, nmicro = 4
   @DF-RHF iter   5:  -105.93303813851205   -8.79542e-07   2.16169e-07 SOSCF, nmicro = conv

  ==> Post-Iterations <==

    Orbital Energies [Eh]
    ---------------------

    Doubly Occupied:                                                      

       1A1   -15.954914     2A1   -15.700426     3A1    -1.630563  
       1B1    -1.014954     1B2    -1.014954     4A1    -0.623039  
       5A1    -0.576589  

    Virtual:                                                              

       2B2     0.473668     2B1     0.473668     3B1     0.623633  
       3B2     0.623633     6A1     0.662711     7A1     0.698566  
       8A1     1.017597     4B2     1.440401     4B1     1.440401  
       9A1     1.500241    10A1     5.995199  

    Final Occupation by Irrep:
             A1    A2    B1    B2 
    DOCC [     5,    0,    1,    1 ]

  Energy converged.

  @DF-RHF Final Energy:  -105.93303813851205

   => Energetics <=

    Nuclear Repulsion Energy =             43.2161387015166696
    One-Electron Energy =                -225.2674711719890865
    Two-Electron Energy =                  76.1182943319603567
    PCM Polarization Energy =               0.0000000000000000
    Total Energy =                       -105.9330381385120461

    Alert: EFP and PCM quantities not currently incorporated into SCF psivars.

Properties will be evaluated at   0.000000,   0.000000,   0.000000 [a0]

Properties computed using the SCF density matrix

  Nuclear Dipole Moment: [e a0]
     X:     7.9368      Y:     0.0000      Z:     0.0000

  Electronic Dipole Moment: [e a0]
     X:    -7.9368      Y:     0.0000      Z:     0.0000

  Dipole Moment: [e a0]
     X:    -0.0000      Y:     0.0000      Z:     0.0000     Total:     0.0000

  Dipole Moment: [D]
     X:    -0.0000      Y:     0.0000      Z:     0.0000     Total:     0.0000


*** tstop() called on comp0002 at Wed Jul 10 12:23:00 2019
Module time:
	user time   =       1.72 seconds =       0.03 minutes
	system time =       4.68 seconds =       0.08 minutes
	total time  =          0 seconds =       0.00 minutes
Total time:
	user time   =       4.44 seconds =       0.07 minutes
	system time =      11.35 seconds =       0.19 minutes
	total time  =          2 seconds =       0.03 minutes

*** tstart() called on comp0002
*** at Wed Jul 10 12:23:00 2019

   => Loading Basis Set <=

    Name: 6-31G
    Role: ORBITAL
    Keyword: BASIS
    atoms 1-2 entry N          line   102 file /usr/local/psi4/share/psi4/basis/6-31g.gbs 


         ---------------------------------------------------------
                                   SCF
            by Justin Turney, Rob Parrish, Andy Simmonett
                             and Daniel Smith
                              RHF Reference
                        1 Threads,    500 MiB Core
         ---------------------------------------------------------

  ==> Geometry <==

    Molecular point group: c2v
    Full point group: C_inf_v

    Geometry (in Angstrom), charge = 0, multiplicity = 1:

       Center              X                  Y                   Z               Mass       
    ------------   -----------------  -----------------  -----------------  -----------------
         N            0.600000000000     0.000000000000     0.000000000000    14.003074004780
         N            0.000000000000     0.000000000000     0.000000000000    14.003074004780

  Running in c2v symmetry.

  Rotational constants: A = ************  B =      3.34403  C =      3.34403 [cm^-1]
  Rotational constants: A = ************  B = 100251.59968  C = 100251.59968 [MHz]
  Nuclear repulsion =   43.216138701516670

  Charge       = 0
  Multiplicity = 1
  Electrons    = 14
  Nalpha       = 7
  Nbeta        = 7

  ==> Algorithm <==

  SCF Algorithm Type is PK.
  DIIS enabled.
  MOM disabled.
  Fractional occupation disabled.
  Guess Type is SAD.
  Energy threshold   = 1.00e-08
  Density threshold  = 1.00e-08
  Integral threshold = 0.00e+00

  ==> Primary Basis <==

  Basis Set: 6-31G
    Blend: 6-31G
    Number of shells: 10
    Number of basis function: 18
    Number of Cartesian functions: 18
    Spherical Harmonics?: false
    Max angular momentum: 1

  ==> Pre-Iterations <==

   -------------------------------------------------------
    Irrep   Nso     Nmo     Nalpha   Nbeta   Ndocc  Nsocc
   -------------------------------------------------------
     A1        10      10       0       0       0       0
     A2         0       0       0       0       0       0
     B1         4       4       0       0       0       0
     B2         4       4       0       0       0       0
   -------------------------------------------------------
    Total      18      18       7       7       7       0
   -------------------------------------------------------

  ==> Integral Setup <==

  Using in-core PK algorithm.
   Calculation information:
      Number of atoms:                   2
      Number of AO shells:              10
      Number of primitives:             28
      Number of atomic orbitals:        18
      Number of basis functions:        18

      Integral cutoff                 1.00e-12
      Number of threads:                 1

  Performing in-core PK
  Using 29412 doubles for integral storage.
  We computed 1540 shell quartets total.
  Whereas there are 1540 unique shell quartets.

  ==> DiskJK: Disk-Based J/K Matrices <==

    J tasked:                  Yes
    K tasked:                  Yes
    wK tasked:                  No
    Memory (MB):               375
    Schwarz Cutoff:          1E-12

    OpenMP threads:              1

  Minimum eigenvalue in the overlap matrix is 2.5300434008E-04.
  Using Symmetric Orthogonalization.

  SCF Guess: Superposition of Atomic Densities via on-the-fly atomic UHF.

  ==> Iterations <==

                        Total Energy        Delta E     RMS |[F,P]|

   @RHF iter   0:  -109.86453149533968   -1.09865e+02   5.56543e-01 
   @RHF iter   1:  -105.90911997309843    3.95541e+00   1.78967e-02 
   @RHF iter   2:  -105.93218935625055   -2.30694e-02   3.44947e-03 DIIS
   @RHF iter   3:  -105.93320420766497   -1.01485e-03   8.51589e-04 DIIS
   @RHF iter   4:  -105.93328206668923   -7.78590e-05   8.78126e-05 SOSCF, nmicro = 4
   @RHF iter   5:  -105.93328294624718   -8.79558e-07   2.16036e-07 SOSCF, nmicro = 4
   @RHF iter   6:  -105.93328294624824   -1.06581e-12   2.04558e-10 SOSCF, nmicro = conv

  ==> Post-Iterations <==

    Orbital Energies [Eh]
    ---------------------

    Doubly Occupied:                                                      

       1A1   -15.954847     2A1   -15.700344     3A1    -1.630522  
       1B1    -1.015004     1B2    -1.015004     4A1    -0.623051  
       5A1    -0.576562  

    Virtual:                                                              

       2B2     0.473655     2B1     0.473655     3B2     0.623581  
       3B1     0.623581     6A1     0.662733     7A1     0.698557  
       8A1     1.017605     4B2     1.440369     4B1     1.440369  
       9A1     1.500260    10A1     5.995192  

    Final Occupation by Irrep:
             A1    A2    B1    B2 
    DOCC [     5,    0,    1,    1 ]

  Energy converged.

  @RHF Final Energy:  -105.93328294624824

   => Energetics <=

    Nuclear Repulsion Energy =             43.2161387015166696
    One-Electron Energy =                -225.2681770792371481
    Two-Electron Energy =                  76.1187554314722234
    Total Energy =                       -105.9332829462482408



Properties will be evaluated at   0.000000,   0.000000,   0.000000 [a0]

Properties computed using the SCF density matrix

  Nuclear Dipole Moment: [e a0]
     X:     7.9368      Y:     0.0000      Z:     0.0000

  Electronic Dipole Moment: [e a0]
     X:    -7.9368      Y:     0.0000      Z:     0.0000

  Dipole Moment: [e a0]
     X:     0.0000      Y:     0.0000      Z:     0.0000     Total:     0.0000

  Dipole Moment: [D]
     X:     0.0000      Y:     0.0000      Z:     0.0000     Total:     0.0000


*** tstop() called on comp0002 at Wed Jul 10 12:23:01 2019
Module time:
	user time   =       0.82 seconds =       0.01 minutes
	system time =       1.54 seconds =       0.03 minutes
	total time  =          1 seconds =       0.02 minutes
Total time:
	user time   =       5.31 seconds =       0.09 minutes
	system time =      13.14 seconds =       0.22 minutes
	total time  =          3 seconds =       0.05 minutes
 MINTS: Wrapper to libmints.
   by Justin Turney

   Calculation information:
      Number of threads:                 1
      Number of atoms:                   2
      Number of AO shells:              10
      Number of SO shells:              10
      Number of primitives:             28
      Number of atomic orbitals:        18
      Number of basis functions:        18

      Number of irreps:                  4
      Integral cutoff                 0.00e+00
      Number of functions per irrep: [  10    0    4    4 ]

 OEINTS: Overlap, kinetic, potential, dipole, and quadrupole integrals
         stored in file 35.

      Computing two-electron integrals...done
      Computed 4350 non-zero two-electron integrals.
        Stored in file 33.


*** tstart() called on comp0002
*** at Wed Jul 10 12:23:01 2019


	Wfn Parameters:
	--------------------
	Wavefunction         = CCSD_T
	Number of irreps     = 4
	Number of MOs        = 18
	Number of active MOs = 18
	AO-Basis             = NONE
	Semicanonical        = false
	Reference            = RHF
	Print Level          = 1

	IRREP	# MOs	# FZDC	# DOCC	# SOCC	# VIRT	# FZVR
	-----	-----	------	------	------	------	------
	 A1	   10	    0	    5	    0	    5	    0
	 A2	   0	    0	    0	    0	    0	    0
	 B1	   4	    0	    1	    0	    3	    0
	 B2	   4	    0	    1	    0	    3	    0
	Transforming integrals...
	IWL integrals will be deleted.
	(OO|OO)...
	Presorting SO-basis two-electron integrals.
	Sorting File: SO Ints (nn|nn) nbuckets = 1
	Transforming the one-electron integrals and constructing Fock matrices
	Starting first half-transformation.
	Sorting half-transformed integrals.
	First half integral transformation complete.
	Starting second half-transformation.
	Two-electron integral transformation complete.
	(OO|OV)...
	Starting second half-transformation.
	Two-electron integral transformation complete.
	(OO|VV)...
	Starting second half-transformation.
	Two-electron integral transformation complete.
	(OV|OO)...
	Starting first half-transformation.
	Sorting half-transformed integrals.
	First half integral transformation complete.
	Starting second half-transformation.
	Two-electron integral transformation complete.
	(OV|OV)...
	Starting second half-transformation.
	Two-electron integral transformation complete.
	(OV|VV)...
	Starting second half-transformation.
	Two-electron integral transformation complete.
	(VV|OO)...
	Starting first half-transformation.
	Sorting half-transformed integrals.
	First half integral transformation complete.
	Starting second half-transformation.
	Two-electron integral transformation complete.
	(VV|OV)...
	Starting second half-transformation.
	Two-electron integral transformation complete.
	(VV|VV)...
	Starting second half-transformation.
	Two-electron integral transformation complete.
	Frozen core energy     =      0.00000000000000

	Size of irrep 0 of <ab|cd> integrals:      0.002 (MW) /      0.015 (MB)
	Size of irrep 1 of <ab|cd> integrals:      0.000 (MW) /      0.003 (MB)
	Size of irrep 2 of <ab|cd> integrals:      0.001 (MW) /      0.007 (MB)
	Size of irrep 3 of <ab|cd> integrals:      0.001 (MW) /      0.007 (MB)
	Total:                                     0.004 (MW) /      0.032 (MB)

	Size of irrep 0 of <ia|bc> integrals:      0.001 (MW) /      0.011 (MB)
	Size of irrep 1 of <ia|bc> integrals:      0.000 (MW) /      0.001 (MB)
	Size of irrep 2 of <ia|bc> integrals:      0.001 (MW) /      0.005 (MB)
	Size of irrep 3 of <ia|bc> integrals:      0.001 (MW) /      0.005 (MB)
	Total:                                     0.003 (MW) /      0.021 (MB)

	Size of irrep 0 of tijab amplitudes:       0.001 (MW) /      0.009 (MB)
	Size of irrep 1 of tijab amplitudes:       0.000 (MW) /      0.000 (MB)
	Size of irrep 2 of tijab amplitudes:       0.000 (MW) /      0.002 (MB)
	Size of irrep 3 of tijab amplitudes:       0.000 (MW) /      0.002 (MB)
	Total:                                     0.002 (MW) /      0.014 (MB)

	Nuclear Rep. energy          =     43.21613870151667
	SCF energy                   =   -105.93328294624824
	One-electron energy          =   -225.26817706847692
	Two-electron energy          =     76.11875542071191
	Reference energy             =   -105.93328294624833

*** tstop() called on comp0002 at Wed Jul 10 12:23:01 2019
Module time:
	user time   =       0.05 seconds =       0.00 minutes
	system time =       0.32 seconds =       0.01 minutes
	total time  =          0 seconds =       0.00 minutes
Total time:
	user time   =       5.48 seconds =       0.09 minutes
	system time =      13.61 seconds =       0.23 minutes
	total time  =          3 seconds =       0.05 minutes

*** tstart() called on comp0002
*** at Wed Jul 10 12:23:01 2019

            **************************
            *                        *
            *        CCENERGY        *
            *                        *
            **************************

    Nuclear Rep. energy (wfn)     =   43.216138701516670
    SCF energy          (wfn)     = -105.933282946248241
    Reference energy    (file100) = -105.933282946248326

    Input parameters:
    -----------------
    Wave function   =     CCSD_T
    Reference wfn   =     RHF
    Brueckner       =     No
    Memory (Mbytes) =     524.3
    Maxiter         =     50
    R_Convergence   =     1.0e-07
    E_Convergence   =     1.0e-06
    Restart         =     Yes
    DIIS            =     Yes
    AO Basis        =     NONE
    ABCD            =     NEW
    Cache Level     =     2
    Cache Type      =     LOW
    Print Level     =     1
    Num. of threads =     1
    # Amps to Print =     10
    Print MP2 Amps? =     No
    Analyze T2 Amps =     No
    Print Pair Ener =     No
    Local CC        =     No
    SCS-MP2         =     False
    SCSN-MP2        =     False
    SCS-CCSD        =     False

    Using old T1 amplitudes.
    Using old T2 amplitudes.

MP2 correlation energy -0.1123029204536937
                Solving CC Amplitude Equations
                ------------------------------
  Iter             Energy              RMS        T1Diag      D1Diag    New D1Diag    D2Diag
  ----     ---------------------    ---------   ----------  ----------  ----------   --------
     0        -0.066423254759624    0.000e+00    0.004751    0.014045    0.014045    0.094019
     1        -0.118844311037050    1.084e-01    0.002972    0.010264    0.010264    0.087313
     2        -0.121894104967372    2.494e-02    0.003333    0.010058    0.010058    0.092522
     3        -0.122463963638017    5.592e-03    0.003395    0.009002    0.009002    0.094476
     4        -0.122476388847542    1.038e-03    0.003389    0.008727    0.008727    0.094840
     5        -0.122486062266146    1.750e-04    0.003380    0.008655    0.008655    0.094912
     6        -0.122486629893710    3.238e-05    0.003380    0.008647    0.008647    0.094926
     7        -0.122486421060501    5.152e-06    0.003379    0.008646    0.008646    0.094927
     8        -0.122486328386058    1.028e-06    0.003379    0.008645    0.008645    0.094927
     9        -0.122486307105845    1.784e-07    0.003379    0.008645    0.008645    0.094927
    10        -0.122486305318979    3.104e-08    0.003379    0.008645    0.008645    0.094927

    Iterations converged.


    Largest TIA Amplitudes:
              4   0        -0.0085839485
              3   1        -0.0063000599
              3   2         0.0056773128
              2   1        -0.0025511428
              2   2        -0.0025222145
              4   3        -0.0010082784
              5   6        -0.0003849116
              6   9        -0.0003849116
              4   4         0.0001796973
              1   4         0.0001675858

    Largest TIjAb Amplitudes:
      4   4   5   5        -0.0347838892
      4   4   8   8        -0.0347838892
      5   5   7   7        -0.0321869354
      6   6  10  10        -0.0321869354
      5   5   5   7        -0.0245813394
      5   5   7   5        -0.0245813394
      6   6   8  10        -0.0245813394
      6   6  10   8        -0.0245813394
      5   5   5   5        -0.0233580869
      6   6   8   8        -0.0233580869

    SCF energy       (wfn)                    = -105.933282946248241
    Reference energy (file100)                = -105.933282946248326

    Opposite-spin MP2 correlation energy      =   -0.085899815996456
    Same-spin MP2 correlation energy          =   -0.026403104457238
    MP2 correlation energy                    =   -0.112302920453694
      * MP2 total energy                      = -106.045585866702027

    Opposite-spin CCSD correlation energy     =   -0.097614223925052
    Same-spin CCSD correlation energy         =   -0.024872081393927
    CCSD correlation energy                   =   -0.122486305318979
      * CCSD total energy                     = -106.055769251567298


*** tstop() called on comp0002 at Wed Jul 10 12:23:01 2019
Module time:
	user time   =       0.11 seconds =       0.00 minutes
	system time =       0.33 seconds =       0.01 minutes
	total time  =          0 seconds =       0.00 minutes
Total time:
	user time   =       5.59 seconds =       0.09 minutes
	system time =      13.94 seconds =       0.23 minutes
	total time  =          3 seconds =       0.05 minutes

*** tstart() called on comp0002
*** at Wed Jul 10 12:23:01 2019

            **************************
            *                        *
            *        CCTRIPLES       *
            *                        *
            **************************


    Wave function   =    CCSD_T
    Reference wfn   =      RHF

    Nuclear Rep. energy (wfn)                =   43.216138701516670
    SCF energy          (wfn)                = -105.933282946248241
    Reference energy    (file100)            = -105.933282946248326
    CCSD energy         (file100)            =   -0.122486305318979
    Total CCSD energy   (file100)            = -106.055769251567298

    Number of ijk index combinations:               84
    Memory available in words        :        65536000
    ~Words needed per explicit thread:             500
    Number of threads for explicit ijk threading:    1

    (T) energy                                =   -0.001568252676789
      * CCSD(T) total energy                  = -106.057337504244089


*** tstop() called on comp0002 at Wed Jul 10 12:23:01 2019
Module time:
	user time   =       0.02 seconds =       0.00 minutes
	system time =       0.03 seconds =       0.00 minutes
	total time  =          0 seconds =       0.00 minutes
Total time:
	user time   =       5.61 seconds =       0.09 minutes
	system time =      13.97 seconds =       0.23 minutes
	total time  =          3 seconds =       0.05 minutes
    SCF Algorithm Type (re)set to DF.

*** tstart() called on comp0002
*** at Wed Jul 10 12:23:01 2019

   => Loading Basis Set <=

    Name: 6-31G
    Role: ORBITAL
    Keyword: BASIS
    atoms 1-2 entry N          line   102 file /usr/local/psi4/share/psi4/basis/6-31g.gbs 


         ---------------------------------------------------------
                                   SCF
            by Justin Turney, Rob Parrish, Andy Simmonett
                             and Daniel Smith
                              RHF Reference
                        1 Threads,    500 MiB Core
         ---------------------------------------------------------

  ==> Geometry <==

    Molecular point group: c2v
    Full point group: C_inf_v

    Geometry (in Angstrom), charge = 0, multiplicity = 1:

       Center              X                  Y                   Z               Mass       
    ------------   -----------------  -----------------  -----------------  -----------------
         N            0.600000000000     0.000000000000     0.000000000000    14.003074004780
         N            0.000000000000     0.000000000000     0.000000000000    14.003074004780

  Running in c2v symmetry.

  Rotational constants: A = ************  B =      3.34403  C =      3.34403 [cm^-1]
  Rotational constants: A = ************  B = 100251.59968  C = 100251.59968 [MHz]
  Nuclear repulsion =   43.216138701516670

  Charge       = 0
  Multiplicity = 1
  Electrons    = 14
  Nalpha       = 7
  Nbeta        = 7

  ==> Algorithm <==

  SCF Algorithm Type is DF.
  DIIS enabled.
  MOM disabled.
  Fractional occupation disabled.
  Guess Type is SAD.
  Energy threshold   = 1.00e-08
  Density threshold  = 1.00e-08
  Integral threshold = 0.00e+00

  ==> Primary Basis <==

  Basis Set: 6-31G
    Blend: 6-31G
    Number of shells: 10
    Number of basis function: 18
    Number of Cartesian functions: 18
    Spherical Harmonics?: false
    Max angular momentum: 1

   => Loading Basis Set <=

    Name: (6-31G AUX)
    Role: JKFIT
    Keyword: DF_BASIS_SCF
    atoms 1-2 entry N          line   171 file /usr/local/psi4/share/psi4/basis/cc-pvdz-jkfit.gbs 

  ==> Pre-Iterations <==

   -------------------------------------------------------
    Irrep   Nso     Nmo     Nalpha   Nbeta   Ndocc  Nsocc
   -------------------------------------------------------
     A1        10      10       0       0       0       0
     A2         0       0       0       0       0       0
     B1         4       4       0       0       0       0
     B2         4       4       0       0       0       0
   -------------------------------------------------------
    Total      18      18       7       7       7       0
   -------------------------------------------------------

  ==> Integral Setup <==

  ==> DiskDFJK: Density-Fitted J/K Matrices <==

    J tasked:                  Yes
    K tasked:                  Yes
    wK tasked:                  No
    OpenMP threads:              1
    Integrals threads:           1
    Memory (MB):               375
    Algorithm:                Core
    Integral Cache:           NONE
    Schwarz Cutoff:          1E-12
    Fitting Condition:       1E-12

   => Auxiliary Basis Set <=

  Basis Set: (6-31G AUX)
    Blend: CC-PVDZ-JKFIT
    Number of shells: 48
    Number of basis function: 162
    Number of Cartesian functions: 162
    Spherical Harmonics?: false
    Max angular momentum: 3

  Minimum eigenvalue in the overlap matrix is 2.5300434008E-04.
  Using Symmetric Orthogonalization.

  SCF Guess: Superposition of Atomic Densities via on-the-fly atomic UHF.

  ==> Iterations <==

                           Total Energy        Delta E     RMS |[F,P]|

   @DF-RHF iter   0:  -109.86442799993338   -1.09864e+02   5.56542e-01 
   @DF-RHF iter   1:  -105.90887880727445    3.95555e+00   1.78950e-02 
   @DF-RHF iter   2:  -105.93194490222858   -2.30661e-02   3.44923e-03 DIIS
   @DF-RHF iter   3:  -105.93295940768121   -1.01451e-03   8.51550e-04 DIIS
   @DF-RHF iter   4:  -105.93303725897027   -7.78513e-05   8.78109e-05 SOSCF, nmicro = 4
   @DF-RHF iter   5:  -105.93303813851205   -8.79542e-07   2.16169e-07 SOSCF, nmicro = 4
   @DF-RHF iter   6:  -105.93303813851323   -1.17950e-12   2.03934e-10 SOSCF, nmicro = conv

  ==> Post-Iterations <==

    Orbital Energies [Eh]
    ---------------------

    Doubly Occupied:                                                      

       1A1   -15.954914     2A1   -15.700426     3A1    -1.630563  
       1B1    -1.014954     1B2    -1.014954     4A1    -0.623039  
       5A1    -0.576589  

    Virtual:                                                              

       2B2     0.473668     2B1     0.473668     3B1     0.623633  
       3B2     0.623633     6A1     0.662711     7A1     0.698566  
       8A1     1.017597     4B2     1.440401     4B1     1.440401  
       9A1     1.500241    10A1     5.995199  

    Final Occupation by Irrep:
             A1    A2    B1    B2 
    DOCC [     5,    0,    1,    1 ]

  Energy converged.

  @DF-RHF Final Energy:  -105.93303813851323

   => Energetics <=

    Nuclear Repulsion Energy =             43.2161387015166696
    One-Electron Energy =                -225.2674716120770029
    Two-Electron Energy =                  76.1182947720471219
    Total Energy =                       -105.9330381385132256



Properties will be evaluated at   0.000000,   0.000000,   0.000000 [a0]

Properties computed using the SCF density matrix

  Nuclear Dipole Moment: [e a0]
     X:     7.9368      Y:     0.0000      Z:     0.0000

  Electronic Dipole Moment: [e a0]
     X:    -7.9368      Y:     0.0000      Z:     0.0000

  Dipole Moment: [e a0]
     X:    -0.0000      Y:     0.0000      Z:     0.0000     Total:     0.0000

  Dipole Moment: [D]
     X:    -0.0000      Y:     0.0000      Z:     0.0000     Total:     0.0000


*** tstop() called on comp0002 at Wed Jul 10 12:23:01 2019
Module time:
	user time   =       1.29 seconds =       0.02 minutes
	system time =       3.11 seconds =       0.05 minutes
	total time  =          0 seconds =       0.00 minutes
Total time:
	user time   =       6.91 seconds =       0.12 minutes
	system time =      17.08 seconds =       0.28 minutes
	total time  =          3 seconds =       0.05 minutes

*** tstart() called on comp0002
*** at Wed Jul 10 12:23:01 2019


  //>>>>>>>>>>>>>>>>>>>>>>>>>>>>>>>>>>>//
  //               DFMP2               //
  //<<<<<<<<<<<<<<<<<<<<<<<<<<<<<<<<<<<//

   => Loading Basis Set <=

    Name: (6-31G AUX)
    Role: RIFIT
    Keyword: DF_BASIS_MP2
    atoms 1-2 entry N          line   197 file /usr/local/psi4/share/psi4/basis/cc-pvdz-ri.gbs 

	 --------------------------------------------------------
	                          DF-MP2                         
	      2nd-Order Density-Fitted Moller-Plesset Theory     
	              RMP2 Wavefunction,   1 Threads             
	                                                         
	        Rob Parrish, Justin Turney, Andy Simmonett,      
	           Ed Hohenstein, and C. David Sherrill          
	 --------------------------------------------------------

   => Auxiliary Basis Set <=

  Basis Set: (6-31G AUX)
    Blend: CC-PVDZ-RI
    Number of shells: 36
    Number of basis function: 112
    Number of Cartesian functions: 132
    Spherical Harmonics?: true
    Max angular momentum: 3

	 --------------------------------------------------------
	                 NBF =    18, NAUX =   112
	 --------------------------------------------------------
	   CLASS    FOCC     OCC    AOCC    AVIR     VIR    FVIR
	   PAIRS       0       7       7      11      11       0
	 --------------------------------------------------------

	-----------------------------------------------------------
	 ==================> DF-MP2 Energies <==================== 
	-----------------------------------------------------------
	 Reference Energy          =    -105.9330381385132256 [Eh]
	 Singles Energy            =      -0.0000000000000000 [Eh]
	 Same-Spin Energy          =      -0.0264076993426189 [Eh]
	 Opposite-Spin Energy      =      -0.0858898996780151 [Eh]
	 Correlation Energy        =      -0.1122975990206340 [Eh]
	 Total Energy              =    -106.0453357375338612 [Eh]
	-----------------------------------------------------------
	 ================> DF-SCS-MP2 Energies <================== 
	-----------------------------------------------------------
	 SCS Same-Spin Scale       =       0.3333333333333333 [-]
	 SCS Opposite-Spin Scale   =       1.2000000000000000 [-]
	 SCS Same-Spin Energy      =      -0.0088025664475396 [Eh]
	 SCS Opposite-Spin Energy  =      -0.1030678796136181 [Eh]
	 SCS Correlation Energy    =      -0.1118704460611577 [Eh]
	 SCS Total Energy          =    -106.0449085845743866 [Eh]
	-----------------------------------------------------------


*** tstop() called on comp0002 at Wed Jul 10 12:23:02 2019
Module time:
	user time   =       0.62 seconds =       0.01 minutes
	system time =       1.71 seconds =       0.03 minutes
	total time  =          1 seconds =       0.02 minutes
Total time:
	user time   =       7.53 seconds =       0.13 minutes
	system time =      18.81 seconds =       0.31 minutes
	total time  =          4 seconds =       0.07 minutes
Molecule: Setting geometry variable R to 0.700000

*** tstart() called on comp0002
*** at Wed Jul 10 12:23:02 2019

   => Loading Basis Set <=

    Name: 6-31G
    Role: ORBITAL
    Keyword: BASIS
    atoms 1-2 entry N          line   102 file /usr/local/psi4/share/psi4/basis/6-31g.gbs 


         ---------------------------------------------------------
                                   SCF
            by Justin Turney, Rob Parrish, Andy Simmonett
                             and Daniel Smith
                              RHF Reference
                        1 Threads,    500 MiB Core
         ---------------------------------------------------------

  ==> Geometry <==

    Molecular point group: c2v
    Full point group: C_inf_v

    Geometry (in Angstrom), charge = 0, multiplicity = 1:

       Center              X                  Y                   Z               Mass       
    ------------   -----------------  -----------------  -----------------  -----------------
         N            0.700000000000     0.000000000000     0.000000000000    14.003074004780
         N            0.000000000000     0.000000000000     0.000000000000    14.003074004780

  Running in c2v symmetry.

  Rotational constants: A = ************  B =      2.45684  C =      2.45684 [cm^-1]
  Rotational constants: A = ************  B =  73654.23650  C =  73654.23650 [MHz]
  Nuclear repulsion =   37.042404601299999

  Charge       = 0
  Multiplicity = 1
  Electrons    = 14
  Nalpha       = 7
  Nbeta        = 7

  ==> Algorithm <==

  SCF Algorithm Type is DF.
  DIIS enabled.
  MOM disabled.
  Fractional occupation disabled.
  Guess Type is SAD.
  Energy threshold   = 1.00e-06
  Density threshold  = 1.00e-06
  Integral threshold = 0.00e+00

  ==> Primary Basis <==

  Basis Set: 6-31G
    Blend: 6-31G
    Number of shells: 10
    Number of basis function: 18
    Number of Cartesian functions: 18
    Spherical Harmonics?: false
    Max angular momentum: 1

   => Loading Basis Set <=

    Name: (6-31G AUX)
    Role: JKFIT
    Keyword: DF_BASIS_SCF
    atoms 1-2 entry N          line   171 file /usr/local/psi4/share/psi4/basis/cc-pvdz-jkfit.gbs 

  ==> Pre-Iterations <==

   -------------------------------------------------------
    Irrep   Nso     Nmo     Nalpha   Nbeta   Ndocc  Nsocc
   -------------------------------------------------------
     A1        10      10       0       0       0       0
     A2         0       0       0       0       0       0
     B1         4       4       0       0       0       0
     B2         4       4       0       0       0       0
   -------------------------------------------------------
    Total      18      18       7       7       7       0
   -------------------------------------------------------

  ==> Integral Setup <==

  ==> DiskDFJK: Density-Fitted J/K Matrices <==

    J tasked:                  Yes
    K tasked:                  Yes
    wK tasked:                  No
    OpenMP threads:              1
    Integrals threads:           1
    Memory (MB):               375
    Algorithm:                Core
    Integral Cache:           NONE
    Schwarz Cutoff:          1E-12
    Fitting Condition:       1E-12

   => Auxiliary Basis Set <=

  Basis Set: (6-31G AUX)
    Blend: CC-PVDZ-JKFIT
    Number of shells: 48
    Number of basis function: 162
    Number of Cartesian functions: 162
    Spherical Harmonics?: false
    Max angular momentum: 3

  Minimum eigenvalue in the overlap matrix is 6.2220959217E-04.
  Using Symmetric Orthogonalization.

  SCF Guess: Superposition of Atomic Densities via on-the-fly atomic UHF.

  ==> Iterations <==

                           Total Energy        Delta E     RMS |[F,P]|

   @DF-RHF iter   0:  -110.23811893342192   -1.10238e+02   4.66469e-01 
   @DF-RHF iter   1:  -107.48376496535884    2.75435e+00   1.27664e-02 
   @DF-RHF iter   2:  -107.49504332445433   -1.12784e-02   2.47578e-03 DIIS
   @DF-RHF iter   3:  -107.49554200598652   -4.98682e-04   5.22291e-04 DIIS
   @DF-RHF iter   4:  -107.49556746660039   -2.54606e-05   6.87718e-05 SOSCF, nmicro = 4
   @DF-RHF iter   5:  -107.49556803337380   -5.66773e-07   1.06373e-07 SOSCF, nmicro = conv

  ==> Post-Iterations <==

    Orbital Energies [Eh]
    ---------------------

    Doubly Occupied:                                                      

       1A1   -15.741507     2A1   -15.647973     3A1    -1.715623  
       1B2    -0.891263     1B1    -0.891263     4A1    -0.640754  
       5A1    -0.619278  

    Virtual:                                                              

       2B2     0.409099     2B1     0.409099     6A1     0.657594  
       3B2     0.678770     3B1     0.678770     7A1     0.699454  
       8A1     1.008302     4B1     1.284371     4B2     1.284371  
       9A1     1.470511    10A1     3.965568  

    Final Occupation by Irrep:
             A1    A2    B1    B2 
    DOCC [     5,    0,    1,    1 ]

  Energy converged.

  @DF-RHF Final Energy:  -107.49556803337380

   => Energetics <=

    Nuclear Repulsion Energy =             37.0424046012999995
    One-Electron Energy =                -216.7806251394274000
    Two-Electron Energy =                  72.2426525047535932
    Total Energy =                       -107.4955680333738002



Properties will be evaluated at   0.000000,   0.000000,   0.000000 [a0]

Properties computed using the SCF density matrix

  Nuclear Dipole Moment: [e a0]
     X:     9.2597      Y:     0.0000      Z:     0.0000

  Electronic Dipole Moment: [e a0]
     X:    -9.2597      Y:     0.0000      Z:     0.0000

  Dipole Moment: [e a0]
     X:    -0.0000      Y:     0.0000      Z:     0.0000     Total:     0.0000

  Dipole Moment: [D]
     X:    -0.0000      Y:     0.0000      Z:     0.0000     Total:     0.0000


*** tstop() called on comp0002 at Wed Jul 10 12:23:02 2019
Module time:
	user time   =       1.90 seconds =       0.03 minutes
	system time =       4.66 seconds =       0.08 minutes
	total time  =          0 seconds =       0.00 minutes
Total time:
	user time   =       9.51 seconds =       0.16 minutes
	system time =      23.65 seconds =       0.39 minutes
	total time  =          4 seconds =       0.07 minutes

*** tstart() called on comp0002
*** at Wed Jul 10 12:23:02 2019

   => Loading Basis Set <=

    Name: 6-31G
    Role: ORBITAL
    Keyword: BASIS
    atoms 1-2 entry N          line   102 file /usr/local/psi4/share/psi4/basis/6-31g.gbs 


         ---------------------------------------------------------
                                   SCF
            by Justin Turney, Rob Parrish, Andy Simmonett
                             and Daniel Smith
                              RHF Reference
                        1 Threads,    500 MiB Core
         ---------------------------------------------------------

  ==> Geometry <==

    Molecular point group: c2v
    Full point group: C_inf_v

    Geometry (in Angstrom), charge = 0, multiplicity = 1:

       Center              X                  Y                   Z               Mass       
    ------------   -----------------  -----------------  -----------------  -----------------
         N            0.700000000000     0.000000000000     0.000000000000    14.003074004780
         N            0.000000000000     0.000000000000     0.000000000000    14.003074004780

  Running in c2v symmetry.

  Rotational constants: A = ************  B =      2.45684  C =      2.45684 [cm^-1]
  Rotational constants: A = ************  B =  73654.23650  C =  73654.23650 [MHz]
  Nuclear repulsion =   37.042404601299999

  Charge       = 0
  Multiplicity = 1
  Electrons    = 14
  Nalpha       = 7
  Nbeta        = 7

  ==> Algorithm <==

  SCF Algorithm Type is PK.
  DIIS enabled.
  MOM disabled.
  Fractional occupation disabled.
  Guess Type is SAD.
  Energy threshold   = 1.00e-08
  Density threshold  = 1.00e-08
  Integral threshold = 0.00e+00

  ==> Primary Basis <==

  Basis Set: 6-31G
    Blend: 6-31G
    Number of shells: 10
    Number of basis function: 18
    Number of Cartesian functions: 18
    Spherical Harmonics?: false
    Max angular momentum: 1

  ==> Pre-Iterations <==

   -------------------------------------------------------
    Irrep   Nso     Nmo     Nalpha   Nbeta   Ndocc  Nsocc
   -------------------------------------------------------
     A1        10      10       0       0       0       0
     A2         0       0       0       0       0       0
     B1         4       4       0       0       0       0
     B2         4       4       0       0       0       0
   -------------------------------------------------------
    Total      18      18       7       7       7       0
   -------------------------------------------------------

  ==> Integral Setup <==

  Using in-core PK algorithm.
   Calculation information:
      Number of atoms:                   2
      Number of AO shells:              10
      Number of primitives:             28
      Number of atomic orbitals:        18
      Number of basis functions:        18

      Integral cutoff                 1.00e-12
      Number of threads:                 1

  Performing in-core PK
  Using 29412 doubles for integral storage.
  We computed 1540 shell quartets total.
  Whereas there are 1540 unique shell quartets.

  ==> DiskJK: Disk-Based J/K Matrices <==

    J tasked:                  Yes
    K tasked:                  Yes
    wK tasked:                  No
    Memory (MB):               375
    Schwarz Cutoff:          1E-12

    OpenMP threads:              1

  Minimum eigenvalue in the overlap matrix is 6.2220959217E-04.
  Using Symmetric Orthogonalization.

  SCF Guess: Superposition of Atomic Densities via on-the-fly atomic UHF.

  ==> Iterations <==

                        Total Energy        Delta E     RMS |[F,P]|

   @RHF iter   0:  -110.23820646329692   -1.10238e+02   4.66470e-01 
   @RHF iter   1:  -107.48396529127211    2.75424e+00   1.27666e-02 
   @RHF iter   2:  -107.49524517743568   -1.12799e-02   2.47604e-03 DIIS
   @RHF iter   3:  -107.49574409236727   -4.98915e-04   5.22246e-04 DIIS
   @RHF iter   4:  -107.49576955170774   -2.54593e-05   6.87755e-05 SOSCF, nmicro = 4
   @RHF iter   5:  -107.49577011852162   -5.66814e-07   1.06267e-07 SOSCF, nmicro = 4
   @RHF iter   6:  -107.49577011852200   -3.83693e-13   2.62380e-10 SOSCF, nmicro = conv

  ==> Post-Iterations <==

    Orbital Energies [Eh]
    ---------------------

    Doubly Occupied:                                                      

       1A1   -15.741432     2A1   -15.647893     3A1    -1.715589  
       1B1    -0.891295     1B2    -0.891295     4A1    -0.640763  
       5A1    -0.619251  

    Virtual:                                                              

       2B1     0.409095     2B2     0.409095     6A1     0.657618  
       3B1     0.678712     3B2     0.678712     7A1     0.699435  
       8A1     1.008317     4B1     1.284345     4B2     1.284345  
       9A1     1.470531    10A1     3.965537  

    Final Occupation by Irrep:
             A1    A2    B1    B2 
    DOCC [     5,    0,    1,    1 ]

  Energy converged.

  @RHF Final Energy:  -107.49577011852200

   => Energetics <=

    Nuclear Repulsion Energy =             37.0424046012999995
    One-Electron Energy =                -216.7813140463541401
    Two-Electron Energy =                  72.2431393265321304
    Total Energy =                       -107.4957701185220031



Properties will be evaluated at   0.000000,   0.000000,   0.000000 [a0]

Properties computed using the SCF density matrix

  Nuclear Dipole Moment: [e a0]
     X:     9.2597      Y:     0.0000      Z:     0.0000

  Electronic Dipole Moment: [e a0]
     X:    -9.2597      Y:     0.0000      Z:     0.0000

  Dipole Moment: [e a0]
     X:    -0.0000      Y:     0.0000      Z:     0.0000     Total:     0.0000

  Dipole Moment: [D]
     X:    -0.0000      Y:     0.0000      Z:     0.0000     Total:     0.0000


*** tstop() called on comp0002 at Wed Jul 10 12:23:02 2019
Module time:
	user time   =       0.82 seconds =       0.01 minutes
	system time =       1.70 seconds =       0.03 minutes
	total time  =          0 seconds =       0.00 minutes
Total time:
	user time   =      10.40 seconds =       0.17 minutes
	system time =      25.58 seconds =       0.43 minutes
	total time  =          4 seconds =       0.07 minutes
 MINTS: Wrapper to libmints.
   by Justin Turney

   Calculation information:
      Number of threads:                 1
      Number of atoms:                   2
      Number of AO shells:              10
      Number of SO shells:              10
      Number of primitives:             28
      Number of atomic orbitals:        18
      Number of basis functions:        18

[...]

Properties will be evaluated at   0.000000,   0.000000,   0.000000 [a0]

Properties computed using the SCF density matrix

  Nuclear Dipole Moment: [e a0]
     X:    46.2983      Y:     0.0000      Z:     0.0000

  Electronic Dipole Moment: [e a0]
     X:   -46.2983      Y:     0.0000      Z:     0.0000

  Dipole Moment: [e a0]
     X:     0.0000      Y:     0.0000      Z:     0.0000     Total:     0.0000

  Dipole Moment: [D]
     X:     0.0000      Y:     0.0000      Z:     0.0000     Total:     0.0000


*** tstop() called on comp0002 at Wed Jul 10 12:23:50 2019
Module time:
	user time   =       1.79 seconds =       0.03 minutes
	system time =       4.03 seconds =       0.07 minutes
	total time  =          0 seconds =       0.00 minutes
Total time:
	user time   =     144.96 seconds =       2.42 minutes
	system time =     349.48 seconds =       5.82 minutes
	total time  =         52 seconds =       0.87 minutes
Molecule: Setting geometry variable R to 4.000000

*** tstart() called on comp0002
*** at Wed Jul 10 12:23:50 2019

   => Loading Basis Set <=

    Name: 6-31G
    Role: ORBITAL
    Keyword: BASIS
    atoms 1-2 entry N          line   102 file /usr/local/psi4/share/psi4/basis/6-31g.gbs 


         ---------------------------------------------------------
                                   SCF
            by Justin Turney, Rob Parrish, Andy Simmonett
                             and Daniel Smith
                              RHF Reference
                        1 Threads,    500 MiB Core
         ---------------------------------------------------------

  ==> Geometry <==

    Molecular point group: c2v
    Full point group: C_inf_v

    Geometry (in Angstrom), charge = 0, multiplicity = 1:

       Center              X                  Y                   Z               Mass       
    ------------   -----------------  -----------------  -----------------  -----------------
         N            4.000000000000     0.000000000000     0.000000000000    14.003074004780
         N            0.000000000000     0.000000000000     0.000000000000    14.003074004780

  Running in c2v symmetry.

  Rotational constants: A = ************  B =      0.07524  C =      0.07524 [cm^-1]
  Rotational constants: A = ************  B =   2255.66099  C =   2255.66099 [MHz]
  Nuclear repulsion =    6.482420805227499

  Charge       = 0
  Multiplicity = 1
  Electrons    = 14
  Nalpha       = 7
  Nbeta        = 7

  ==> Algorithm <==

  SCF Algorithm Type is DF.
  DIIS enabled.
  MOM disabled.
  Fractional occupation disabled.
  Guess Type is SAD.
  Energy threshold   = 1.00e-06
  Density threshold  = 1.00e-06
  Integral threshold = 0.00e+00

  ==> Primary Basis <==

  Basis Set: 6-31G
    Blend: 6-31G
    Number of shells: 10
    Number of basis function: 18
    Number of Cartesian functions: 18
    Spherical Harmonics?: false
    Max angular momentum: 1

   => Loading Basis Set <=

    Name: (6-31G AUX)
    Role: JKFIT
    Keyword: DF_BASIS_SCF
    atoms 1-2 entry N          line   171 file /usr/local/psi4/share/psi4/basis/cc-pvdz-jkfit.gbs 

  ==> Pre-Iterations <==

   -------------------------------------------------------
    Irrep   Nso     Nmo     Nalpha   Nbeta   Ndocc  Nsocc
   -------------------------------------------------------
     A1        10      10       0       0       0       0
     A2         0       0       0       0       0       0
     B1         4       4       0       0       0       0
     B2         4       4       0       0       0       0
   -------------------------------------------------------
    Total      18      18       7       7       7       0
   -------------------------------------------------------

  ==> Integral Setup <==

  ==> DiskDFJK: Density-Fitted J/K Matrices <==

    J tasked:                  Yes
    K tasked:                  Yes
    wK tasked:                  No
    OpenMP threads:              1
    Integrals threads:           1
    Memory (MB):               375
    Algorithm:                Core
    Integral Cache:           NONE
    Schwarz Cutoff:          1E-12
    Fitting Condition:       1E-12

   => Auxiliary Basis Set <=

  Basis Set: (6-31G AUX)
    Blend: CC-PVDZ-JKFIT
    Number of shells: 48
    Number of basis function: 162
    Number of Cartesian functions: 162
    Spherical Harmonics?: false
    Max angular momentum: 3

  Minimum eigenvalue in the overlap matrix is 2.2159320293E-01.
  Using Symmetric Orthogonalization.

  SCF Guess: Superposition of Atomic Densities via on-the-fly atomic UHF.

  ==> Iterations <==

                           Total Energy        Delta E     RMS |[F,P]|

   @DF-RHF iter   0:  -107.58604734528740   -1.07586e+02   1.60430e-02 
   @DF-RHF iter   1:  -107.85150423372141   -2.65457e-01   9.89748e-03 
   @DF-RHF iter   2:  -107.85761763363642   -6.11340e-03   2.69956e-03 DIIS
   @DF-RHF iter   3:  -107.85822108447719   -6.03451e-04   3.86838e-04 DIIS
   @DF-RHF iter   4:  -107.85823510541266   -1.40209e-05   1.42469e-05 SOSCF, nmicro = 5
   @DF-RHF iter   5:  -107.85823512683453   -2.14219e-08   1.12164e-07 SOSCF, nmicro = conv

  ==> Post-Iterations <==

    Orbital Energies [Eh]
    ---------------------

    Doubly Occupied:                                                      

       1A1   -15.807281     2A1   -15.807246     3A1    -1.016262  
       4A1    -1.009258     5A1    -0.312276     1B2    -0.305261  
       1B1    -0.305261  

    Virtual:                                                              

       2B1    -0.174187     2B2    -0.174187     6A1    -0.163089  
       7A1     0.851064     3B2     0.885219     3B1     0.885219  
       4B2     0.893483     4B1     0.893483     8A1     0.917766  
       9A1     0.934731    10A1     0.962871  

    Final Occupation by Irrep:
             A1    A2    B1    B2 
    DOCC [     5,    0,    1,    1 ]

  Energy converged.

  @DF-RHF Final Energy:  -107.85823512683453

   => Energetics <=

    Nuclear Repulsion Energy =              6.4824208052274992
    One-Electron Energy =                -159.5556226630314711
    Two-Electron Energy =                  45.2149667309694578
    PCM Polarization Energy =               0.0000000000000000
    Total Energy =                       -107.8582351268345292

    Alert: EFP and PCM quantities not currently incorporated into SCF psivars.

Properties will be evaluated at   0.000000,   0.000000,   0.000000 [a0]

Properties computed using the SCF density matrix

  Nuclear Dipole Moment: [e a0]
     X:    52.9123      Y:     0.0000      Z:     0.0000

  Electronic Dipole Moment: [e a0]
     X:   -52.9123      Y:     0.0000      Z:     0.0000

  Dipole Moment: [e a0]
     X:    -0.0000      Y:     0.0000      Z:     0.0000     Total:     0.0000

  Dipole Moment: [D]
     X:    -0.0000      Y:     0.0000      Z:     0.0000     Total:     0.0000


*** tstop() called on comp0002 at Wed Jul 10 12:23:51 2019
Module time:
	user time   =       1.69 seconds =       0.03 minutes
	system time =       4.15 seconds =       0.07 minutes
	total time  =          1 seconds =       0.02 minutes
Total time:
	user time   =     146.72 seconds =       2.45 minutes
	system time =     353.88 seconds =       5.90 minutes
	total time  =         53 seconds =       0.88 minutes
Molecule: Setting geometry variable R to 4.500000

*** tstart() called on comp0002
*** at Wed Jul 10 12:23:51 2019

   => Loading Basis Set <=

    Name: 6-31G
    Role: ORBITAL
    Keyword: BASIS
    atoms 1-2 entry N          line   102 file /usr/local/psi4/share/psi4/basis/6-31g.gbs 


         ---------------------------------------------------------
                                   SCF
            by Justin Turney, Rob Parrish, Andy Simmonett
                             and Daniel Smith
                              RHF Reference
                        1 Threads,    500 MiB Core
         ---------------------------------------------------------

  ==> Geometry <==

    Molecular point group: c2v
    Full point group: C_inf_v

    Geometry (in Angstrom), charge = 0, multiplicity = 1:

       Center              X                  Y                   Z               Mass       
    ------------   -----------------  -----------------  -----------------  -----------------
         N            4.500000000000     0.000000000000     0.000000000000    14.003074004780
         N            0.000000000000     0.000000000000     0.000000000000    14.003074004780

  Running in c2v symmetry.

  Rotational constants: A = ************  B =      0.05945  C =      0.05945 [cm^-1]
  Rotational constants: A = ************  B =   1782.25066  C =   1782.25066 [MHz]
  Nuclear repulsion =    5.762151826868888

  Charge       = 0
  Multiplicity = 1
  Electrons    = 14
  Nalpha       = 7
  Nbeta        = 7

  ==> Algorithm <==

  SCF Algorithm Type is DF.
  DIIS enabled.
  MOM disabled.
  Fractional occupation disabled.
  Guess Type is SAD.
  Energy threshold   = 1.00e-06
  Density threshold  = 1.00e-06
  Integral threshold = 0.00e+00

  ==> Primary Basis <==

  Basis Set: 6-31G
    Blend: 6-31G
    Number of shells: 10
    Number of basis function: 18
    Number of Cartesian functions: 18
    Spherical Harmonics?: false
    Max angular momentum: 1

   => Loading Basis Set <=

    Name: (6-31G AUX)
    Role: JKFIT
    Keyword: DF_BASIS_SCF
    atoms 1-2 entry N          line   171 file /usr/local/psi4/share/psi4/basis/cc-pvdz-jkfit.gbs 

  ==> Pre-Iterations <==

   -------------------------------------------------------
    Irrep   Nso     Nmo     Nalpha   Nbeta   Ndocc  Nsocc
   -------------------------------------------------------
     A1        10      10       0       0       0       0
     A2         0       0       0       0       0       0
     B1         4       4       0       0       0       0
     B2         4       4       0       0       0       0
   -------------------------------------------------------
    Total      18      18       7       7       7       0
   -------------------------------------------------------

  ==> Integral Setup <==

  ==> DiskDFJK: Density-Fitted J/K Matrices <==

    J tasked:                  Yes
    K tasked:                  Yes
    wK tasked:                  No
    OpenMP threads:              1
    Integrals threads:           1
    Memory (MB):               375
    Algorithm:                Core
    Integral Cache:           NONE
    Schwarz Cutoff:          1E-12
    Fitting Condition:       1E-12

   => Auxiliary Basis Set <=

  Basis Set: (6-31G AUX)
    Blend: CC-PVDZ-JKFIT
    Number of shells: 48
    Number of basis function: 162
    Number of Cartesian functions: 162
    Spherical Harmonics?: false
    Max angular momentum: 3

  Minimum eigenvalue in the overlap matrix is 2.2252235698E-01.
  Using Symmetric Orthogonalization.

  SCF Guess: Superposition of Atomic Densities via on-the-fly atomic UHF.

  ==> Iterations <==

                           Total Energy        Delta E     RMS |[F,P]|

   @DF-RHF iter   0:  -107.58603280422278   -1.07586e+02   1.60359e-02 
   @DF-RHF iter   1:  -107.82130798058044   -2.35275e-01   9.51959e-03 
   @DF-RHF iter   2:  -107.82686921370677   -5.56123e-03   2.62539e-03 DIIS
   @DF-RHF iter   3:  -107.82743404674009   -5.64833e-04   3.54707e-04 DIIS
   @DF-RHF iter   4:  -107.82744493079625   -1.08841e-05   9.20190e-06 SOSCF, nmicro = 5
   @DF-RHF iter   5:  -107.82744493886113   -8.06489e-09   2.11913e-07 SOSCF, nmicro = conv

  ==> Post-Iterations <==

    Orbital Energies [Eh]
    ---------------------

    Doubly Occupied:                                                      

       1A1   -15.802133     2A1   -15.802107     3A1    -1.012650  
       4A1    -1.008144     5A1    -0.299528     1B1    -0.295662  
       1B2    -0.295662  

    Virtual:                                                              

       2B1    -0.179464     2B2    -0.179464     6A1    -0.173902  
       7A1     0.878727     3B2     0.890128     3B1     0.890128  
       4B2     0.892274     4B1     0.892274     8A1     0.904018  
       9A1     0.939050    10A1     0.945465  

    Final Occupation by Irrep:
             A1    A2    B1    B2 
    DOCC [     5,    0,    1,    1 ]

  Energy converged.

  @DF-RHF Final Energy:  -107.82744493886113

   => Energetics <=

    Nuclear Repulsion Energy =              5.7621518268688883
    One-Electron Energy =                -158.1474224360945584
    Two-Electron Energy =                  44.5578256703645437
    Total Energy =                       -107.8274449388611345



Properties will be evaluated at   0.000000,   0.000000,   0.000000 [a0]

Properties computed using the SCF density matrix

  Nuclear Dipole Moment: [e a0]
     X:    59.5264      Y:     0.0000      Z:     0.0000

  Electronic Dipole Moment: [e a0]
     X:   -59.5264      Y:     0.0000      Z:     0.0000

  Dipole Moment: [e a0]
     X:     0.0000      Y:     0.0000      Z:     0.0000     Total:     0.0000

  Dipole Moment: [D]
     X:     0.0000      Y:     0.0000      Z:     0.0000     Total:     0.0000


*** tstop() called on comp0002 at Wed Jul 10 12:23:51 2019
Module time:
	user time   =       1.79 seconds =       0.03 minutes
	system time =       4.42 seconds =       0.07 minutes
	total time  =          0 seconds =       0.00 minutes
Total time:
	user time   =     148.61 seconds =       2.48 minutes
	system time =     358.52 seconds =       5.98 minutes
	total time  =         53 seconds =       0.88 minutes
Molecule: Setting geometry variable R to 5.000000

*** tstart() called on comp0002
*** at Wed Jul 10 12:23:51 2019

   => Loading Basis Set <=

    Name: 6-31G
    Role: ORBITAL
    Keyword: BASIS
    atoms 1-2 entry N          line   102 file /usr/local/psi4/share/psi4/basis/6-31g.gbs 


         ---------------------------------------------------------
                                   SCF
            by Justin Turney, Rob Parrish, Andy Simmonett
                             and Daniel Smith
                              RHF Reference
                        1 Threads,    500 MiB Core
         ---------------------------------------------------------

  ==> Geometry <==

    Molecular point group: c2v
    Full point group: C_inf_v

    Geometry (in Angstrom), charge = 0, multiplicity = 1:

       Center              X                  Y                   Z               Mass       
    ------------   -----------------  -----------------  -----------------  -----------------
         N            5.000000000000     0.000000000000     0.000000000000    14.003074004780
         N            0.000000000000     0.000000000000     0.000000000000    14.003074004780

  Running in c2v symmetry.

  Rotational constants: A = ************  B =      0.04815  C =      0.04815 [cm^-1]
  Rotational constants: A = ************  B =   1443.62304  C =   1443.62304 [MHz]
  Nuclear repulsion =    5.185936644182000

  Charge       = 0
  Multiplicity = 1
  Electrons    = 14
  Nalpha       = 7
  Nbeta        = 7

  ==> Algorithm <==

  SCF Algorithm Type is DF.
  DIIS enabled.
  MOM disabled.
  Fractional occupation disabled.
  Guess Type is SAD.
  Energy threshold   = 1.00e-06
  Density threshold  = 1.00e-06
  Integral threshold = 0.00e+00

  ==> Primary Basis <==

  Basis Set: 6-31G
    Blend: 6-31G
    Number of shells: 10
    Number of basis function: 18
    Number of Cartesian functions: 18
    Spherical Harmonics?: false
    Max angular momentum: 1

   => Loading Basis Set <=

    Name: (6-31G AUX)
    Role: JKFIT
    Keyword: DF_BASIS_SCF
    atoms 1-2 entry N          line   171 file /usr/local/psi4/share/psi4/basis/cc-pvdz-jkfit.gbs 

  ==> Pre-Iterations <==

   -------------------------------------------------------
    Irrep   Nso     Nmo     Nalpha   Nbeta   Ndocc  Nsocc
   -------------------------------------------------------
     A1        10      10       0       0       0       0
     A2         0       0       0       0       0       0
     B1         4       4       0       0       0       0
     B2         4       4       0       0       0       0
   -------------------------------------------------------
    Total      18      18       7       7       7       0
   -------------------------------------------------------

  ==> Integral Setup <==

  ==> DiskDFJK: Density-Fitted J/K Matrices <==

    J tasked:                  Yes
    K tasked:                  Yes
    wK tasked:                  No
    OpenMP threads:              1
    Integrals threads:           1
    Memory (MB):               375
    Algorithm:                Core
    Integral Cache:           NONE
    Schwarz Cutoff:          1E-12
    Fitting Condition:       1E-12

   => Auxiliary Basis Set <=

  Basis Set: (6-31G AUX)
    Blend: CC-PVDZ-JKFIT
    Number of shells: 48
    Number of basis function: 162
    Number of Cartesian functions: 162
    Spherical Harmonics?: false
    Max angular momentum: 3

  Minimum eigenvalue in the overlap matrix is 2.2271274529E-01.
  Using Symmetric Orthogonalization.

  SCF Guess: Superposition of Atomic Densities via on-the-fly atomic UHF.

  ==> Iterations <==

                           Total Energy        Delta E     RMS |[F,P]|

   @DF-RHF iter   0:  -107.58603200692238   -1.07586e+02   1.60344e-02 
   @DF-RHF iter   1:  -107.80065775665318   -2.14626e-01   9.37819e-03 
   @DF-RHF iter   2:  -107.80600144761112   -5.34369e-03   2.61654e-03 DIIS
   @DF-RHF iter   3:  -107.80656047907868   -5.59031e-04   3.44436e-04 DIIS
   @DF-RHF iter   4:  -107.80657027822488   -9.79915e-06   2.99071e-05 SOSCF, nmicro = 5
   @DF-RHF iter   5:  -107.80657032177604   -4.35512e-08   1.77310e-07 SOSCF, nmicro = conv

  ==> Post-Iterations <==

    Orbital Energies [Eh]
    ---------------------

    Doubly Occupied:                                                      

       1A1   -15.800106     2A1   -15.800087     3A1    -1.011024  
       4A1    -1.007877     5A1    -0.291345     1B1    -0.289001  
       1B2    -0.289001  

    Virtual:                                                              

       2B1    -0.184362     2B2    -0.184362     6A1    -0.181348  
       7A1     0.888864     3B1     0.891729     3B2     0.891729  
       4B1     0.892217     4B2     0.892217     8A1     0.895552  
       9A1     0.941119    10A1     0.943349  

    Final Occupation by Irrep:
             A1    A2    B1    B2 
    DOCC [     5,    0,    1,    1 ]

  Energy converged.

  @DF-RHF Final Energy:  -107.80657032177604

   => Energetics <=

    Nuclear Repulsion Energy =              5.1859366441820001
    One-Electron Energy =                -157.0081318571160978
    Two-Electron Energy =                  44.0156248911580832
    PCM Polarization Energy =               0.0000000000000000
    Total Energy =                       -107.8065703217760216

    Alert: EFP and PCM quantities not currently incorporated into SCF psivars.

Properties will be evaluated at   0.000000,   0.000000,   0.000000 [a0]

Properties computed using the SCF density matrix

  Nuclear Dipole Moment: [e a0]
     X:    66.1404      Y:     0.0000      Z:     0.0000

  Electronic Dipole Moment: [e a0]
     X:   -66.1404      Y:     0.0000      Z:     0.0000

  Dipole Moment: [e a0]
     X:    -0.0000      Y:     0.0000      Z:     0.0000     Total:     0.0000

  Dipole Moment: [D]
     X:    -0.0000      Y:     0.0000      Z:     0.0000     Total:     0.0000


*** tstop() called on comp0002 at Wed Jul 10 12:23:51 2019
Module time:
	user time   =       1.63 seconds =       0.03 minutes
	system time =       3.79 seconds =       0.06 minutes
	total time  =          0 seconds =       0.00 minutes
Total time:
	user time   =     150.32 seconds =       2.51 minutes
	system time =     362.55 seconds =       6.04 minutes
	total time  =         53 seconds =       0.88 minutes

    Psi4 stopped on: Wednesday, 10 July 2019 12:23PM
    Psi4 wall time for execution: 0:00:52.91

*** Psi4 exiting successfully. Buy a developer a beer!
