
    -----------------------------------------------------------------------
          Psi4: An Open-Source Ab Initio Electronic Structure Package
                               Psi4 1.2 release

                         Git: Rev {HEAD} 9d4a61c 


    R. M. Parrish, L. A. Burns, D. G. A. Smith, A. C. Simmonett,
    A. E. DePrince III, E. G. Hohenstein, U. Bozkaya, A. Yu. Sokolov,
    R. Di Remigio, R. M. Richard, J. F. Gonthier, A. M. James,
    H. R. McAlexander, A. Kumar, M. Saitow, X. Wang, B. P. Pritchard,
    P. Verma, H. F. Schaefer III, K. Patkowski, R. A. King, E. F. Valeev,
    F. A. Evangelista, J. M. Turney, T. D. Crawford, and C. D. Sherrill,
    J. Chem. Theory Comput. 13(7) pp 3185--3197 (2017).
    (doi: 10.1021/acs.jctc.7b00174)


                         Additional Contributions by
    P. Kraus, H. Kruse, M. H. Lechner, M. C. Schieber, and R. A. Shaw

    -----------------------------------------------------------------------


    Psi4 started on: Wednesday, 10 July 2019 01:35PM

    Process ID: 122354
    Host:       comp0002
    PSIDATADIR: /usr/local/psi4/share/psi4
    Memory:     500.0 MiB
    Threads:    16
    
  ==> Input File <==

--------------------------------------------------------------------------
#! 6-31G N2 FullCI PES

molecule n2 {
N          R    0.0  0.0
N          0.0  0.0  0.0
}

set {
  basis 6-31g
}

Rvals=[0.5, 0.6, 0.7, 0.8, 0.9, 1.0, 1.1, 1.2, 1.3, 1.4, 1.5, 1.6, 1.7, 1.8, 1.9, 2.0, 2.1, 2.2, 2.3, 2.4, 2.5, 3.0, 3.5, 4.0, 4.5, 5.0, 6.0]

for R in Rvals:
   n2.R = R
   hfene=energy('hf')
   fciene=energy('fci')
   print ('%f %f %f' % ( R, hfene, fciene) )
   clean()  
--------------------------------------------------------------------------
Molecule: geometry: Molecule is not complete, please use 'update_geometry'
                    once all variables are set.

Molecule: Setting a variable updates the molecular geometry, for
          cartesian molecules this can lead to surprising behaviour.
          Freezing COM and orientation to prevent this.

Molecule: Setting geometry variable R to 0.500000

*** tstart() called on comp0002
*** at Wed Jul 10 13:35:51 2019

   => Loading Basis Set <=

    Name: 6-31G
    Role: ORBITAL
    Keyword: BASIS
    atoms 1-2 entry N          line   102 file /usr/local/psi4/share/psi4/basis/6-31g.gbs 

    There are an even number of electrons - assuming singlet.
    Specify the multiplicity in the molecule input block.


         ---------------------------------------------------------
                                   SCF
            by Justin Turney, Rob Parrish, Andy Simmonett
                             and Daniel Smith
                              RHF Reference
                       16 Threads,    500 MiB Core
         ---------------------------------------------------------

  ==> Geometry <==

    Molecular point group: c2v
    Full point group: C_inf_v

    Geometry (in Angstrom), charge = 0, multiplicity = 1:

       Center              X                  Y                   Z               Mass       
    ------------   -----------------  -----------------  -----------------  -----------------
         N            0.500000000000     0.000000000000     0.000000000000    14.003074004780
         N            0.000000000000     0.000000000000     0.000000000000    14.003074004780

  Running in c2v symmetry.

  Rotational constants: A = ************  B =      4.81541  C =      4.81541 [cm^-1]
  Rotational constants: A = ************  B = 144362.30354  C = 144362.30354 [MHz]
  Nuclear repulsion =   51.859366441819994

  Charge       = 0
  Multiplicity = 1
  Electrons    = 14
  Nalpha       = 7
  Nbeta        = 7

  ==> Algorithm <==

  SCF Algorithm Type is DF.
  DIIS enabled.
  MOM disabled.
  Fractional occupation disabled.
  Guess Type is SAD.
  Energy threshold   = 1.00e-06
  Density threshold  = 1.00e-06
  Integral threshold = 0.00e+00

  ==> Primary Basis <==

  Basis Set: 6-31G
    Blend: 6-31G
    Number of shells: 10
    Number of basis function: 18
    Number of Cartesian functions: 18
    Spherical Harmonics?: false
    Max angular momentum: 1

   => Loading Basis Set <=

    Name: (6-31G AUX)
    Role: JKFIT
    Keyword: DF_BASIS_SCF
    atoms 1-2 entry N          line   171 file /usr/local/psi4/share/psi4/basis/cc-pvdz-jkfit.gbs 

  ==> Pre-Iterations <==

   -------------------------------------------------------
    Irrep   Nso     Nmo     Nalpha   Nbeta   Ndocc  Nsocc
   -------------------------------------------------------
     A1        10      10       0       0       0       0
     A2         0       0       0       0       0       0
     B1         4       4       0       0       0       0
     B2         4       4       0       0       0       0
   -------------------------------------------------------
    Total      18      18       7       7       7       0
   -------------------------------------------------------

  ==> Integral Setup <==

  ==> DiskDFJK: Density-Fitted J/K Matrices <==

    J tasked:                  Yes
    K tasked:                  Yes
    wK tasked:                  No
    OpenMP threads:             16
    Integrals threads:          16
    Memory (MB):               375
    Algorithm:                Core
    Integral Cache:           NONE
    Schwarz Cutoff:          1E-12
    Fitting Condition:       1E-12

   => Auxiliary Basis Set <=

  Basis Set: (6-31G AUX)
    Blend: CC-PVDZ-JKFIT
    Number of shells: 48
    Number of basis function: 162
    Number of Cartesian functions: 162
    Spherical Harmonics?: false
    Max angular momentum: 3

  Minimum eigenvalue in the overlap matrix is 8.6499039983E-05.
  Using Symmetric Orthogonalization.

  SCF Guess: Superposition of Atomic Densities via on-the-fly atomic UHF.

  ==> Iterations <==

                           Total Energy        Delta E     RMS |[F,P]|

   @DF-RHF iter   0:  -108.39682022905777   -1.08397e+02   7.01810e-01 
   @DF-RHF iter   1:  -102.90700752651028    5.48981e+00   2.66072e-02 
   @DF-RHF iter   2:  -102.95079722871745   -4.37897e-02   5.86497e-03 DIIS
   @DF-RHF iter   3:  -102.95277653721962   -1.97931e-03   1.61593e-03 DIIS
   @DF-RHF iter   4:  -102.95295885825530   -1.82321e-04   1.26911e-04 DIIS
   @DF-RHF iter   5:  -102.95296008800135   -1.22975e-06   1.49285e-05 DIIS
   @DF-RHF iter   6:  -102.95296010879966   -2.07983e-08   8.39591e-07 DIIS

  ==> Post-Iterations <==

    Orbital Energies [Eh]
    ---------------------

    Doubly Occupied:                                                      

       1A1   -16.528398     2A1   -15.835367     3A1    -1.471183  
       1B1    -1.190892     1B2    -1.190892     4A1    -0.544169  
       5A1    -0.522554  

    Virtual:                                                              

       2B2     0.526577     2B1     0.526577     3B1     0.567626  
       3B2     0.567626     6A1     0.664594     7A1     0.709840  
       8A1     1.005830     9A1     1.507030     4B2     1.639736  
       4B1     1.639736    10A1     9.841641  

    Final Occupation by Irrep:
             A1    A2    B1    B2 
    DOCC [     5,    0,    1,    1 ]

  Energy converged.

  @DF-RHF Final Energy:  -102.95296010879966

   => Energetics <=

    Nuclear Repulsion Energy =             51.8593664418199936
    One-Electron Energy =                -235.0577141309203739
    Two-Electron Energy =                  80.2453875803007293
    Total Energy =                       -102.9529601087996582



Properties will be evaluated at   0.000000,   0.000000,   0.000000 [a0]

Properties computed using the SCF density matrix

  Nuclear Dipole Moment: [e a0]
     X:     6.6140      Y:     0.0000      Z:     0.0000

  Electronic Dipole Moment: [e a0]
     X:    -6.6140      Y:     0.0000      Z:     0.0000

  Dipole Moment: [e a0]
     X:     0.0000      Y:     0.0000      Z:     0.0000     Total:     0.0000

  Dipole Moment: [D]
     X:     0.0000      Y:     0.0000      Z:     0.0000     Total:     0.0000


*** tstop() called on comp0002 at Wed Jul 10 13:35:52 2019
Module time:
	user time   =       6.90 seconds =       0.12 minutes
	system time =       5.38 seconds =       0.09 minutes
	total time  =          1 seconds =       0.02 minutes
Total time:
	user time   =       6.90 seconds =       0.12 minutes
	system time =       5.38 seconds =       0.09 minutes
	total time  =          1 seconds =       0.02 minutes

*** tstart() called on comp0002
*** at Wed Jul 10 13:35:52 2019

   => Loading Basis Set <=

    Name: 6-31G
    Role: ORBITAL
    Keyword: BASIS
    atoms 1-2 entry N          line   102 file /usr/local/psi4/share/psi4/basis/6-31g.gbs 


         ---------------------------------------------------------
                                   SCF
            by Justin Turney, Rob Parrish, Andy Simmonett
                             and Daniel Smith
                              RHF Reference
                       16 Threads,    500 MiB Core
         ---------------------------------------------------------

  ==> Geometry <==

    Molecular point group: c2v
    Full point group: C_inf_v

    Geometry (in Angstrom), charge = 0, multiplicity = 1:

       Center              X                  Y                   Z               Mass       
    ------------   -----------------  -----------------  -----------------  -----------------
         N            0.500000000000     0.000000000000     0.000000000000    14.003074004780
         N            0.000000000000     0.000000000000     0.000000000000    14.003074004780

  Running in c2v symmetry.

  Rotational constants: A = ************  B =      4.81541  C =      4.81541 [cm^-1]
  Rotational constants: A = ************  B = 144362.30354  C = 144362.30354 [MHz]
  Nuclear repulsion =   51.859366441819994

  Charge       = 0
  Multiplicity = 1
  Electrons    = 14
  Nalpha       = 7
  Nbeta        = 7

  ==> Algorithm <==

  SCF Algorithm Type is PK.
  DIIS enabled.
  MOM disabled.
  Fractional occupation disabled.
  Guess Type is SAD.
  Energy threshold   = 1.00e-08
  Density threshold  = 1.00e-08
  Integral threshold = 0.00e+00

  ==> Primary Basis <==

  Basis Set: 6-31G
    Blend: 6-31G
    Number of shells: 10
    Number of basis function: 18
    Number of Cartesian functions: 18
    Spherical Harmonics?: false
    Max angular momentum: 1

  ==> Pre-Iterations <==

   -------------------------------------------------------
    Irrep   Nso     Nmo     Nalpha   Nbeta   Ndocc  Nsocc
   -------------------------------------------------------
     A1        10      10       0       0       0       0
     A2         0       0       0       0       0       0
     B1         4       4       0       0       0       0
     B2         4       4       0       0       0       0
   -------------------------------------------------------
    Total      18      18       7       7       7       0
   -------------------------------------------------------

  ==> Integral Setup <==

  Using in-core PK algorithm.
   Calculation information:
      Number of atoms:                   2
      Number of AO shells:              10
      Number of primitives:             28
      Number of atomic orbitals:        18
      Number of basis functions:        18

      Integral cutoff                 1.00e-12
      Number of threads:                16

  Performing in-core PK
  Using 29412 doubles for integral storage.
  We computed 5373 shell quartets total.
  Whereas there are 1540 unique shell quartets.
   248.90 percent of shell quartets recomputed by reordering.

  ==> DiskJK: Disk-Based J/K Matrices <==

    J tasked:                  Yes
    K tasked:                  Yes
    wK tasked:                  No
    Memory (MB):               375
    Schwarz Cutoff:          1E-12

    OpenMP threads:             16

  Minimum eigenvalue in the overlap matrix is 8.6499039983E-05.
  Using Symmetric Orthogonalization.

  SCF Guess: Superposition of Atomic Densities via on-the-fly atomic UHF.

  ==> Iterations <==

                        Total Energy        Delta E     RMS |[F,P]|

   @RHF iter   0:  -108.39694814818266   -1.08397e+02   1.11970e+00 
   @RHF iter   1:  -102.90727792821500    5.48967e+00   3.63588e-02 
   @RHF iter   2:  -102.95107567520363   -4.37977e-02   8.68053e-03 DIIS
   @RHF iter   3:  -102.95305537526761   -1.97970e-03   2.15758e-03 DIIS
   @RHF iter   4:  -102.95323770031018   -1.82325e-04   1.89002e-04 DIIS
   @RHF iter   5:  -102.95323893029266   -1.22998e-06   2.43749e-05 DIIS
   @RHF iter   6:  -102.95323895108814   -2.07955e-08   1.36732e-06 DIIS
   @RHF iter   7:  -102.95323895115877   -7.06279e-11   1.63008e-07 DIIS
   @RHF iter   8:  -102.95323895116007   -1.30740e-12   3.07393e-09 DIIS

  ==> Post-Iterations <==

    Orbital Energies [Eh]
    ---------------------

    Doubly Occupied:                                                      

       1A1   -16.528361     2A1   -15.835299     3A1    -1.471148  
       1B1    -1.190962     1B2    -1.190962     4A1    -0.544148  
       5A1    -0.522555  

    Virtual:                                                              

       2B2     0.526561     2B1     0.526561     3B1     0.567577  
       3B2     0.567577     6A1     0.664618     7A1     0.709839  
       8A1     1.005832     9A1     1.507046     4B2     1.639676  
       4B1     1.639676    10A1     9.841678  

    Final Occupation by Irrep:
             A1    A2    B1    B2 
    DOCC [     5,    0,    1,    1 ]

  Energy converged.

  @RHF Final Energy:  -102.95323895116007

   => Energetics <=

    Nuclear Repulsion Energy =             51.8593664418199936
    One-Electron Energy =                -235.0583397336814357
    Two-Electron Energy =                  80.2457343407013752
    Total Energy =                       -102.9532389511600741



Properties will be evaluated at   0.000000,   0.000000,   0.000000 [a0]

Properties computed using the SCF density matrix

  Nuclear Dipole Moment: [e a0]
     X:     6.6140      Y:     0.0000      Z:     0.0000

  Electronic Dipole Moment: [e a0]
     X:    -6.6140      Y:     0.0000      Z:     0.0000

  Dipole Moment: [e a0]
     X:     0.0000      Y:     0.0000      Z:     0.0000     Total:     0.0000

  Dipole Moment: [D]
     X:     0.0000      Y:     0.0000      Z:     0.0000     Total:     0.0000


*** tstop() called on comp0002 at Wed Jul 10 13:35:59 2019
Module time:
	user time   =       3.96 seconds =       0.07 minutes
	system time =       1.38 seconds =       0.02 minutes
	total time  =          7 seconds =       0.12 minutes
Total time:
	user time   =      10.90 seconds =       0.18 minutes
	system time =       6.94 seconds =       0.12 minutes
	total time  =          8 seconds =       0.13 minutes
 MINTS: Wrapper to libmints.
   by Justin Turney

   Calculation information:
      Number of threads:                16
      Number of atoms:                   2
      Number of AO shells:              10
      Number of SO shells:              10
      Number of primitives:             28
      Number of atomic orbitals:        18
      Number of basis functions:        18

      Number of irreps:                  4
      Integral cutoff                 0.00e+00
      Number of functions per irrep: [  10    0    4    4 ]

 OEINTS: Overlap, kinetic, potential, dipole, and quadrupole integrals
         stored in file 35.

      Computing two-electron integrals...done
      Computed 4350 non-zero two-electron integrals.
        Stored in file 33.


         ---------------------------------------------------------
                          Configuration Interaction
                            (a 'D E T C I' module)

                 C. David Sherrill, Daniel G. A. Smith, and
                              Matt L. Leininger
         ---------------------------------------------------------


   ==> Parameters <==

    EX LEVEL       =       14      H0 BLOCKSIZE  =     1000
    VAL EX LEVEL   =        0      H0 GUESS SIZE =     1000
    H0COUPLINGSIZE =        0      H0 COUPLING   =       NO
    MAXITER        =       24      NUM PRINT     =       20
    NUM ROOTS      =        1      ICORE         =        1
    PRINT LVL      =        1      FCI           =      YES
    R CONV         = 1.00e-04      MIXED         =      YES
    E CONV         = 1.00e-06      MIXED4        =      YES
    R4S            =       NO      REPL OTF      =       NO
    DIAG METHOD    =      SEM      FOLLOW ROOT   =        0
    PRECONDITIONER = DAVIDSON      UPDATE        = DAVIDSON
    S              =   0.0000      Ms0           =      YES
    GUESS VECTOR   =  H0BLOCK      OPENTYPE      =     NONE
    COLLAPSE SIZE  =        1      HD AVG        = EVANGELISTI
    MAX NUM VECS   =       25      REF SYM       =     AUTO
    IOPEN        =       NO

    EX ALLOW       =  1  1  1  1  1  1  1  1  1  1  1  1  1  1 
    STATE AVERAGE  =  0(1.00) 

   ==> CI Orbital and Space information <==

   ------------------------------------------------------
               Space    Total    A1    A2    B1    B2
   ------------------------------------------------------
                 Nso       18    10     0     4     4
                 Nmo       18    10     0     4     4
               Ndocc        7     5     0     1     1
               Nsocc        0     0     0     0     0
   ------------------------------------------------------
                       CI Spaces
   ------------------------------------------------------
        Dropped DOCC        0     0     0     0     0
              Active       18    10     0     4     4
        Dropped UOCC        0     0     0     0     0
   ------------------------------------------------------

   ==> Setting up CI strings <==

    There are 31824 alpha and 31824 beta strings
    The CI space requires 253216512 (2.53E+08) determinants and 4 blocks

   ==> Transforming CI integrals <==

	Presorting SO-basis two-electron integrals.
	Sorting File: SO Ints (nn|nn) nbuckets = 1
	Transforming the one-electron integrals and constructing Fock matrices
	Starting first half-transformation.
	Sorting half-transformed integrals.
	First half integral transformation complete.
	Starting second half-transformation.
	Two-electron integral transformation complete.

   ==> Starting CI iterations <==

    H0 Block Eigenvalue = -102.99965153

    Simultaneous Expansion Method (Block Davidson Method)
    Using 1 initial trial vectors

     Iter   Root       Total Energy       Delta E      C RMS

   @CI  0:     0   -102.999651529490   -1.5486E+02   6.3262E-01  
   @CI  1:     0   -103.056200202507   -5.6549E-02   1.1952E-01  
   @CI  2:     0   -103.057864610063   -1.6644E-03   2.7706E-02  
   @CI  3:     0   -103.057950044243   -8.5434E-05   8.9920E-03  
   @CI  4:     0   -103.057958727024   -8.6828E-06   2.4638E-03  
   @CI  5:     0   -103.057959399592   -6.7257E-07   7.1300E-04  
   @CI  6:     0   -103.057959450087   -5.0495E-08   2.0970E-04  
   @CI  7:     0   -103.057959454306   -4.2189E-09   6.5843E-05 c

   ==> Energetics <==

    SCF energy =         -102.953238951160074
    Total CI energy =    -103.057959454306285

   ==> FCI root 0 information <==

    FCI Root 0 energy =  -103.057959454306285

   The 20 most important determinants:

    *   1    0.984059  ( 7824, 7824)  1A1X 2A1X 3A1X 4A1X 5A1X 1B1X 1B2X 
    *   2   -0.032749  ( 7830, 7830)  1A1X 2A1X 3A1X 4A1X 1B1X 1B2X 7A1X 
    *   3   -0.032175  (24051,24051)  1A1X 2A1X 3A1X 5A1X 1B1X 1B2X 2B1X 
    *   4   -0.032175  (17537,17537)  1A1X 2A1X 3A1X 5A1X 1B1X 1B2X 2B2X 
    *   5   -0.030510  ( 8700, 8700)  1A1X 2A1X 3A1X 4A1X 5A1X 1B2X 4B1X 
    *   6   -0.030510  (12808,12808)  1A1X 2A1X 3A1X 4A1X 5A1X 1B1X 4B2X 
    *   7    0.025042  ( 7826, 7830)  1A1X 2A1X 3A1X 4A1B 5A1A 1B1X 1B2X 6A1A 7A1B 
    *   8    0.025042  ( 7830, 7826)  1A1X 2A1X 3A1X 4A1A 5A1B 1B1X 1B2X 6A1B 7A1A 
    *   9   -0.022948  ( 7826, 7826)  1A1X 2A1X 3A1X 5A1X 1B1X 1B2X 6A1X 
    *  10    0.021736  ( 8700,12808)  1A1X 2A1X 3A1X 4A1X 5A1X 1B1B 1B2A 4B1A 4B2B 
    *  11    0.021736  (12808, 8700)  1A1X 2A1X 3A1X 4A1X 5A1X 1B1A 1B2B 4B1B 4B2A 
    *  12    0.018758  ( 7830, 7881)  1A1X 2A1X 3A1X 4A1A 5A1B 1B1X 1B2X 7A1A 9A1B 
    *  13    0.018758  ( 7881, 7830)  1A1X 2A1X 3A1X 4A1B 5A1A 1B1X 1B2X 7A1B 9A1A 
    *  14   -0.018342  ( 8076, 8700)  1A1X 2A1X 3A1X 4A1X 5A1X 1B2X 2B1A 4B1B 
    *  15   -0.018342  ( 8700, 8076)  1A1X 2A1X 3A1X 4A1X 5A1X 1B2X 2B1B 4B1A 
    *  16   -0.018342  ( 9312,12808)  1A1X 2A1X 3A1X 4A1X 5A1X 1B1X 2B2A 4B2B 
    *  17   -0.018342  (12808, 9312)  1A1X 2A1X 3A1X 4A1X 5A1X 1B1X 2B2B 4B2A 
    *  18   -0.017610  ( 7831, 7831)  1A1X 2A1X 3A1X 5A1X 1B1X 1B2X 7A1X 
    *  19   -0.016573  ( 7824,13684)  1A1X 2A1X 3A1X 4A1X 5A1X 1B1A 1B2A 4B1B 4B2B 
    *  20   -0.016573  (13684, 7824)  1A1X 2A1X 3A1X 4A1X 5A1X 1B1B 1B2B 4B1A 4B2A 

		 "A good bug is a dead bug" 

			 - Starship Troopers

		 "I didn't write FORTRAN.  That's the problem."

			 - Edward Valeev
Molecule: Setting geometry variable R to 0.600000

*** tstart() called on comp0002
*** at Wed Jul 10 14:21:00 2019

   => Loading Basis Set <=

    Name: 6-31G
    Role: ORBITAL
    Keyword: BASIS
    atoms 1-2 entry N          line   102 file /usr/local/psi4/share/psi4/basis/6-31g.gbs 


         ---------------------------------------------------------
                                   SCF
            by Justin Turney, Rob Parrish, Andy Simmonett
                             and Daniel Smith
                              RHF Reference
                       16 Threads,    500 MiB Core
         ---------------------------------------------------------

  ==> Geometry <==

    Molecular point group: c2v
    Full point group: C_inf_v

    Geometry (in Angstrom), charge = 0, multiplicity = 1:

       Center              X                  Y                   Z               Mass       
    ------------   -----------------  -----------------  -----------------  -----------------
         N            0.600000000000     0.000000000000     0.000000000000    14.003074004780
         N            0.000000000000     0.000000000000     0.000000000000    14.003074004780

  Running in c2v symmetry.

  Rotational constants: A = ************  B =      3.34403  C =      3.34403 [cm^-1]
  Rotational constants: A = ************  B = 100251.59968  C = 100251.59968 [MHz]
  Nuclear repulsion =   43.216138701516670

  Charge       = 0
  Multiplicity = 1
  Electrons    = 14
  Nalpha       = 7
  Nbeta        = 7

  ==> Algorithm <==

  SCF Algorithm Type is DF.
  DIIS enabled.
  MOM disabled.
  Fractional occupation disabled.
  Guess Type is SAD.
  Energy threshold   = 1.00e-06
  Density threshold  = 1.00e-06
  Integral threshold = 0.00e+00

  ==> Primary Basis <==

  Basis Set: 6-31G
    Blend: 6-31G
    Number of shells: 10
    Number of basis function: 18
    Number of Cartesian functions: 18
    Spherical Harmonics?: false
    Max angular momentum: 1

   => Loading Basis Set <=

    Name: (6-31G AUX)
    Role: JKFIT
    Keyword: DF_BASIS_SCF
    atoms 1-2 entry N          line   171 file /usr/local/psi4/share/psi4/basis/cc-pvdz-jkfit.gbs 

  ==> Pre-Iterations <==

   -------------------------------------------------------
    Irrep   Nso     Nmo     Nalpha   Nbeta   Ndocc  Nsocc
   -------------------------------------------------------
     A1        10      10       0       0       0       0
     A2         0       0       0       0       0       0
     B1         4       4       0       0       0       0
     B2         4       4       0       0       0       0
   -------------------------------------------------------
    Total      18      18       7       7       7       0
   -------------------------------------------------------

  ==> Integral Setup <==

  ==> DiskDFJK: Density-Fitted J/K Matrices <==

    J tasked:                  Yes
    K tasked:                  Yes
    wK tasked:                  No
    OpenMP threads:             16
    Integrals threads:          16
    Memory (MB):               375
    Algorithm:                Core
    Integral Cache:           NONE
    Schwarz Cutoff:          1E-12
    Fitting Condition:       1E-12

   => Auxiliary Basis Set <=

  Basis Set: (6-31G AUX)
    Blend: CC-PVDZ-JKFIT
    Number of shells: 48
    Number of basis function: 162
    Number of Cartesian functions: 162
    Spherical Harmonics?: false
    Max angular momentum: 3

  Minimum eigenvalue in the overlap matrix is 2.5300434008E-04.
  Using Symmetric Orthogonalization.

  SCF Guess: Superposition of Atomic Densities via on-the-fly atomic UHF.

  ==> Iterations <==

                           Total Energy        Delta E     RMS |[F,P]|

   @DF-RHF iter   0:  -109.86442799993344   -1.09864e+02   6.04193e-01 
   @DF-RHF iter   1:  -105.90887880727442    3.95555e+00   2.03572e-02 
   @DF-RHF iter   2:  -105.93194490222852   -2.30661e-02   4.00310e-03 DIIS
   @DF-RHF iter   3:  -105.93295940768127   -1.01451e-03   9.88289e-04 DIIS
   @DF-RHF iter   4:  -105.93303725897027   -7.78513e-05   9.53293e-05 DIIS
   @DF-RHF iter   5:  -105.93303813166028   -8.72690e-07   9.12262e-06 DIIS
   @DF-RHF iter   6:  -105.93303813849045   -6.83016e-09   5.36595e-07 DIIS

  ==> Post-Iterations <==

    Orbital Energies [Eh]
    ---------------------

    Doubly Occupied:                                                      

       1A1   -15.954915     2A1   -15.700426     3A1    -1.630564  
       1B1    -1.014955     1B2    -1.014955     4A1    -0.623039  
       5A1    -0.576589  

    Virtual:                                                              

       2B2     0.473667     2B1     0.473667     3B1     0.623633  
       3B2     0.623633     6A1     0.662711     7A1     0.698566  
       8A1     1.017597     4B2     1.440400     4B1     1.440400  
       9A1     1.500241    10A1     5.995198  

    Final Occupation by Irrep:
             A1    A2    B1    B2 
    DOCC [     5,    0,    1,    1 ]

  Energy converged.

  @DF-RHF Final Energy:  -105.93303813849045

   => Energetics <=

    Nuclear Repulsion Energy =             43.2161387015166696
    One-Electron Energy =                -225.2674628650828481
    Two-Electron Energy =                  76.1182860250757187
    Total Energy =                       -105.9330381384904456



Properties will be evaluated at   0.000000,   0.000000,   0.000000 [a0]

Properties computed using the SCF density matrix

  Nuclear Dipole Moment: [e a0]
     X:     7.9368      Y:     0.0000      Z:     0.0000

  Electronic Dipole Moment: [e a0]
     X:    -7.9368      Y:     0.0000      Z:     0.0000

  Dipole Moment: [e a0]
     X:    -0.0000      Y:     0.0000      Z:     0.0000     Total:     0.0000

  Dipole Moment: [D]
     X:    -0.0000      Y:     0.0000      Z:     0.0000     Total:     0.0000


*** tstop() called on comp0002 at Wed Jul 10 14:21:01 2019
Module time:
	user time   =       7.72 seconds =       0.13 minutes
	system time =       9.28 seconds =       0.15 minutes
	total time  =          1 seconds =       0.02 minutes
Total time:
	user time   =    2477.59 seconds =      41.29 minutes
	system time =     266.46 seconds =       4.44 minutes
	total time  =       2710 seconds =      45.17 minutes

*** tstart() called on comp0002
*** at Wed Jul 10 14:21:01 2019

   => Loading Basis Set <=

    Name: 6-31G
    Role: ORBITAL
    Keyword: BASIS
    atoms 1-2 entry N          line   102 file /usr/local/psi4/share/psi4/basis/6-31g.gbs 


         ---------------------------------------------------------
                                   SCF
            by Justin Turney, Rob Parrish, Andy Simmonett
                             and Daniel Smith
                              RHF Reference
                       16 Threads,    500 MiB Core
         ---------------------------------------------------------

  ==> Geometry <==

    Molecular point group: c2v
    Full point group: C_inf_v

    Geometry (in Angstrom), charge = 0, multiplicity = 1:

       Center              X                  Y                   Z               Mass       
    ------------   -----------------  -----------------  -----------------  -----------------
         N            0.600000000000     0.000000000000     0.000000000000    14.003074004780
         N            0.000000000000     0.000000000000     0.000000000000    14.003074004780

  Running in c2v symmetry.

  Rotational constants: A = ************  B =      3.34403  C =      3.34403 [cm^-1]
  Rotational constants: A = ************  B = 100251.59968  C = 100251.59968 [MHz]
  Nuclear repulsion =   43.216138701516670

  Charge       = 0
  Multiplicity = 1
  Electrons    = 14
  Nalpha       = 7
  Nbeta        = 7

  ==> Algorithm <==

  SCF Algorithm Type is PK.
  DIIS enabled.
  MOM disabled.
  Fractional occupation disabled.
  Guess Type is SAD.
  Energy threshold   = 1.00e-08
  Density threshold  = 1.00e-08
  Integral threshold = 0.00e+00

  ==> Primary Basis <==

  Basis Set: 6-31G
    Blend: 6-31G
    Number of shells: 10
    Number of basis function: 18
    Number of Cartesian functions: 18
    Spherical Harmonics?: false
    Max angular momentum: 1

  ==> Pre-Iterations <==

   -------------------------------------------------------
    Irrep   Nso     Nmo     Nalpha   Nbeta   Ndocc  Nsocc
   -------------------------------------------------------
     A1        10      10       0       0       0       0
     A2         0       0       0       0       0       0
     B1         4       4       0       0       0       0
     B2         4       4       0       0       0       0
   -------------------------------------------------------
    Total      18      18       7       7       7       0
   -------------------------------------------------------

  ==> Integral Setup <==

  Using in-core PK algorithm.
   Calculation information:
      Number of atoms:                   2
      Number of AO shells:              10
      Number of primitives:             28
      Number of atomic orbitals:        18
      Number of basis functions:        18

      Integral cutoff                 1.00e-12
      Number of threads:                16

  Performing in-core PK
  Using 29412 doubles for integral storage.
  We computed 5373 shell quartets total.
  Whereas there are 1540 unique shell quartets.
   248.90 percent of shell quartets recomputed by reordering.

  ==> DiskJK: Disk-Based J/K Matrices <==

    J tasked:                  Yes
    K tasked:                  Yes
    wK tasked:                  No
    Memory (MB):               375
    Schwarz Cutoff:          1E-12

    OpenMP threads:             16

  Minimum eigenvalue in the overlap matrix is 2.5300434008E-04.
  Using Symmetric Orthogonalization.

  SCF Guess: Superposition of Atomic Densities via on-the-fly atomic UHF.

  ==> Iterations <==

                        Total Energy        Delta E     RMS |[F,P]|

   @RHF iter   0:  -109.86453149533978   -1.09865e+02   8.54460e-01 
   @RHF iter   1:  -105.90911997309840    3.95541e+00   2.79809e-02 
   @RHF iter   2:  -105.93218935625067   -2.30694e-02   5.72030e-03 DIIS
   @RHF iter   3:  -105.93320420766507   -1.01485e-03   1.24257e-03 DIIS
   @RHF iter   4:  -105.93328206668922   -7.78590e-05   1.32474e-04 DIIS
   @RHF iter   5:  -105.93328293940013   -8.72711e-07   1.02216e-05 DIIS
   @RHF iter   6:  -105.93328294622563   -6.82550e-09   7.22876e-07 DIIS
   @RHF iter   7:  -105.93328294624814   -2.25100e-11   5.12350e-08 DIIS
   @RHF iter   8:  -105.93328294624820   -5.68434e-14   2.67474e-09 DIIS

  ==> Post-Iterations <==

    Orbital Energies [Eh]
    ---------------------

    Doubly Occupied:                                                      

       1A1   -15.954847     2A1   -15.700344     3A1    -1.630522  
       1B2    -1.015004     1B1    -1.015004     4A1    -0.623051  
       5A1    -0.576562  

    Virtual:                                                              

       2B2     0.473655     2B1     0.473655     3B1     0.623581  
       3B2     0.623581     6A1     0.662733     7A1     0.698557  
       8A1     1.017605     4B2     1.440369     4B1     1.440369  
       9A1     1.500260    10A1     5.995192  

    Final Occupation by Irrep:
             A1    A2    B1    B2 
    DOCC [     5,    0,    1,    1 ]

  Energy converged.

  @RHF Final Energy:  -105.93328294624820

   => Energetics <=

    Nuclear Repulsion Energy =             43.2161387015166696
    One-Electron Energy =                -225.2681769803189695
    Two-Electron Energy =                  76.1187553325540875
    Total Energy =                       -105.9332829462481982



Properties will be evaluated at   0.000000,   0.000000,   0.000000 [a0]

Properties computed using the SCF density matrix

  Nuclear Dipole Moment: [e a0]
     X:     7.9368      Y:     0.0000      Z:     0.0000

  Electronic Dipole Moment: [e a0]
     X:    -7.9368      Y:     0.0000      Z:     0.0000

  Dipole Moment: [e a0]
     X:    -0.0000      Y:     0.0000      Z:     0.0000     Total:     0.0000

  Dipole Moment: [D]
     X:    -0.0000      Y:     0.0000      Z:     0.0000     Total:     0.0000


*** tstop() called on comp0002 at Wed Jul 10 14:21:02 2019
Module time:
	user time   =       2.55 seconds =       0.04 minutes
	system time =       1.00 seconds =       0.02 minutes
	total time  =          1 seconds =       0.02 minutes
Total time:
	user time   =    2480.15 seconds =      41.34 minutes
	system time =     267.70 seconds =       4.46 minutes
	total time  =       2711 seconds =      45.18 minutes
 MINTS: Wrapper to libmints.
   by Justin Turney

   Calculation information:
      Number of threads:                16
      Number of atoms:                   2
      Number of AO shells:              10
      Number of SO shells:              10
      Number of primitives:             28
      Number of atomic orbitals:        18
      Number of basis functions:        18

      Number of irreps:                  4
      Integral cutoff                 0.00e+00
      Number of functions per irrep: [  10    0    4    4 ]

 OEINTS: Overlap, kinetic, potential, dipole, and quadrupole integrals
         stored in file 35.

      Computing two-electron integrals...done
      Computed 4350 non-zero two-electron integrals.
        Stored in file 33.


         ---------------------------------------------------------
                          Configuration Interaction
                            (a 'D E T C I' module)

                 C. David Sherrill, Daniel G. A. Smith, and
                              Matt L. Leininger
         ---------------------------------------------------------


   ==> Parameters <==

    EX LEVEL       =       14      H0 BLOCKSIZE  =     1000
    VAL EX LEVEL   =        0      H0 GUESS SIZE =     1000
    H0COUPLINGSIZE =        0      H0 COUPLING   =       NO
    MAXITER        =       24      NUM PRINT     =       20
    NUM ROOTS      =        1      ICORE         =        1
    PRINT LVL      =        1      FCI           =      YES
    R CONV         = 1.00e-04      MIXED         =      YES
    E CONV         = 1.00e-06      MIXED4        =      YES
    R4S            =       NO      REPL OTF      =       NO
    DIAG METHOD    =      SEM      FOLLOW ROOT   =        0
    PRECONDITIONER = DAVIDSON      UPDATE        = DAVIDSON
    S              =   0.0000      Ms0           =      YES
    GUESS VECTOR   =  H0BLOCK      OPENTYPE      =     NONE
    COLLAPSE SIZE  =        1      HD AVG        = EVANGELISTI
    MAX NUM VECS   =       25      REF SYM       =     AUTO
    IOPEN        =       NO

    EX ALLOW       =  1  1  1  1  1  1  1  1  1  1  1  1  1  1 
    STATE AVERAGE  =  0(1.00) 

   ==> CI Orbital and Space information <==

   ------------------------------------------------------
               Space    Total    A1    A2    B1    B2
   ------------------------------------------------------
                 Nso       18    10     0     4     4
                 Nmo       18    10     0     4     4
               Ndocc        7     5     0     1     1
               Nsocc        0     0     0     0     0
   ------------------------------------------------------
                       CI Spaces
   ------------------------------------------------------
        Dropped DOCC        0     0     0     0     0
              Active       18    10     0     4     4
        Dropped UOCC        0     0     0     0     0
   ------------------------------------------------------

   ==> Setting up CI strings <==

    There are 31824 alpha and 31824 beta strings
    The CI space requires 253216512 (2.53E+08) determinants and 4 blocks

   ==> Transforming CI integrals <==

	Presorting SO-basis two-electron integrals.
	Sorting File: SO Ints (nn|nn) nbuckets = 1
	Transforming the one-electron integrals and constructing Fock matrices
	Starting first half-transformation.
	Sorting half-transformed integrals.
	First half integral transformation complete.
	Starting second half-transformation.
	Two-electron integral transformation complete.

   ==> Starting CI iterations <==

    H0 Block Eigenvalue = -106.00352110

    Simultaneous Expansion Method (Block Davidson Method)
    Using 1 initial trial vectors

     Iter   Root       Total Energy       Delta E      C RMS

   @CI  0:     0   -106.003521100999   -1.4922E+02   5.9147E-01  
   @CI  1:     0   -106.055740325612   -5.2219E-02   1.1764E-01  
   @CI  2:     0   -106.057471286851   -1.7310E-03   2.7714E-02  
   @CI  3:     0   -106.057571027496   -9.9741E-05   7.9524E-03  
   @CI  4:     0   -106.057578339789   -7.3123E-06   2.3182E-03  
   @CI  5:     0   -106.057578923166   -5.8338E-07   6.8920E-04  
   @CI  6:     0   -106.057578973526   -5.0359E-08   2.0240E-04  
   @CI  7:     0   -106.057578977992   -4.4666E-09   6.0156E-05 c

   ==> Energetics <==

    SCF energy =         -105.933282946248198
    Total CI energy =    -106.057578977992435

   ==> FCI root 0 information <==

    FCI Root 0 energy =  -106.057578977992435

   The 20 most important determinants:

    *   1   -0.981415  ( 7824, 7824)  1A1X 2A1X 3A1X 4A1X 5A1X 1B1X 1B2X 
    *   2    0.036029  (24050,24050)  1A1X 2A1X 3A1X 4A1X 1B1X 1B2X 2B1X 
    *   3    0.036029  (17536,17536)  1A1X 2A1X 3A1X 4A1X 1B1X 1B2X 2B2X 
    *   4    0.031768  (12808,12808)  1A1X 2A1X 3A1X 4A1X 5A1X 1B1X 4B2X 
    *   5    0.031768  ( 8700, 8700)  1A1X 2A1X 3A1X 4A1X 5A1X 1B2X 4B1X 
    *   6    0.024212  ( 8076, 8700)  1A1X 2A1X 3A1X 4A1X 5A1X 1B2X 2B1A 4B1B 
    *   7    0.024212  ( 8700, 8076)  1A1X 2A1X 3A1X 4A1X 5A1X 1B2X 2B1B 4B1A 
    *   8    0.024212  ( 9312,12808)  1A1X 2A1X 3A1X 4A1X 5A1X 1B1X 2B2A 4B2B 
    *   9    0.024212  (12808, 9312)  1A1X 2A1X 3A1X 4A1X 5A1X 1B1X 2B2B 4B2A 
    *  10    0.023083  ( 8076, 8076)  1A1X 2A1X 3A1X 4A1X 5A1X 1B2X 2B1X 
    *  11    0.023083  ( 9312, 9312)  1A1X 2A1X 3A1X 4A1X 5A1X 1B1X 2B2X 
    *  12   -0.022421  ( 8700,12808)  1A1X 2A1X 3A1X 4A1X 5A1X 1B1B 1B2A 4B1A 4B2B 
    *  13   -0.022421  (12808, 8700)  1A1X 2A1X 3A1X 4A1X 5A1X 1B1A 1B2B 4B1B 4B2A 
    *  14    0.020989  ( 7846, 7846)  1A1X 2A1X 3A1X 5A1X 1B1X 1B2X 8A1X 
    *  15    0.020687  ( 7825, 7825)  1A1X 2A1X 3A1X 4A1X 1B1X 1B2X 6A1X 
    *  16    0.019340  ( 7845, 7845)  1A1X 2A1X 3A1X 4A1X 1B1X 1B2X 8A1X 
    *  17    0.019109  ( 7831, 7831)  1A1X 2A1X 3A1X 5A1X 1B1X 1B2X 7A1X 
    *  18   -0.018515  ( 7825, 7831)  1A1X 2A1X 3A1X 4A1A 5A1B 1B1X 1B2X 6A1A 7A1B 
    *  19   -0.018515  ( 7831, 7825)  1A1X 2A1X 3A1X 4A1B 5A1A 1B1X 1B2X 6A1B 7A1A 
    *  20    0.017577  ( 7846, 7880)  1A1X 2A1X 3A1X 4A1B 5A1A 1B1X 1B2X 8A1A 9A1B 

		 "A good bug is a dead bug" 

			 - Starship Troopers

		 "I didn't write FORTRAN.  That's the problem."

			 - Edward Valeev
Molecule: Setting geometry variable R to 0.700000

*** tstart() called on comp0002
*** at Wed Jul 10 15:06:06 2019

   => Loading Basis Set <=

    Name: 6-31G
    Role: ORBITAL
    Keyword: BASIS
    atoms 1-2 entry N          line   102 file /usr/local/psi4/share/psi4/basis/6-31g.gbs 


         ---------------------------------------------------------
                                   SCF
            by Justin Turney, Rob Parrish, Andy Simmonett
                             and Daniel Smith
                              RHF Reference
                       16 Threads,    500 MiB Core
         ---------------------------------------------------------

  ==> Geometry <==

    Molecular point group: c2v
    Full point group: C_inf_v

    Geometry (in Angstrom), charge = 0, multiplicity = 1:

       Center              X                  Y                   Z               Mass       
    ------------   -----------------  -----------------  -----------------  -----------------
         N            0.700000000000     0.000000000000     0.000000000000    14.003074004780
         N            0.000000000000     0.000000000000     0.000000000000    14.003074004780

  Running in c2v symmetry.

  Rotational constants: A = ************  B =      2.45684  C =      2.45684 [cm^-1]
  Rotational constants: A = ************  B =  73654.23650  C =  73654.23650 [MHz]
  Nuclear repulsion =   37.042404601299999

  Charge       = 0
  Multiplicity = 1
  Electrons    = 14
  Nalpha       = 7
  Nbeta        = 7

  ==> Algorithm <==

  SCF Algorithm Type is DF.
  DIIS enabled.
  MOM disabled.
  Fractional occupation disabled.
  Guess Type is SAD.
  Energy threshold   = 1.00e-06
  Density threshold  = 1.00e-06
  Integral threshold = 0.00e+00

  ==> Primary Basis <==

  Basis Set: 6-31G
    Blend: 6-31G
    Number of shells: 10
    Number of basis function: 18
    Number of Cartesian functions: 18
    Spherical Harmonics?: false
    Max angular momentum: 1

   => Loading Basis Set <=

    Name: (6-31G AUX)
    Role: JKFIT
    Keyword: DF_BASIS_SCF
    atoms 1-2 entry N          line   171 file /usr/local/psi4/share/psi4/basis/cc-pvdz-jkfit.gbs 

  ==> Pre-Iterations <==

   -------------------------------------------------------
    Irrep   Nso     Nmo     Nalpha   Nbeta   Ndocc  Nsocc
   -------------------------------------------------------
     A1        10      10       0       0       0       0
     A2         0       0       0       0       0       0
     B1         4       4       0       0       0       0
     B2         4       4       0       0       0       0
   -------------------------------------------------------
    Total      18      18       7       7       7       0
   -------------------------------------------------------

  ==> Integral Setup <==

  ==> DiskDFJK: Density-Fitted J/K Matrices <==

    J tasked:                  Yes
    K tasked:                  Yes
    wK tasked:                  No
    OpenMP threads:             16
    Integrals threads:          16
    Memory (MB):               375
    Algorithm:                Core
    Integral Cache:           NONE
    Schwarz Cutoff:          1E-12
    Fitting Condition:       1E-12

   => Auxiliary Basis Set <=

  Basis Set: (6-31G AUX)
    Blend: CC-PVDZ-JKFIT
    Number of shells: 48
    Number of basis function: 162
    Number of Cartesian functions: 162
    Spherical Harmonics?: false
    Max angular momentum: 3

  Minimum eigenvalue in the overlap matrix is 6.2220959217E-04.
  Using Symmetric Orthogonalization.

  SCF Guess: Superposition of Atomic Densities via on-the-fly atomic UHF.

  ==> Iterations <==

                           Total Energy        Delta E     RMS |[F,P]|

   @DF-RHF iter   0:  -110.23811893342192   -1.10238e+02   4.85210e-01 
   @DF-RHF iter   1:  -107.48376496535877    2.75435e+00   1.41138e-02 
   @DF-RHF iter   2:  -107.49504332445439   -1.12784e-02   2.84446e-03 DIIS
   @DF-RHF iter   3:  -107.49554200598662   -4.98682e-04   5.77415e-04 DIIS
   @DF-RHF iter   4:  -107.49556746660045   -2.54606e-05   7.15348e-05 DIIS
   @DF-RHF iter   5:  -107.49556802915868   -5.62558e-07   6.04343e-06 DIIS
   @DF-RHF iter   6:  -107.49556803335547   -4.19679e-09   4.24629e-07 DIIS

  ==> Post-Iterations <==

    Orbital Energies [Eh]
    ---------------------

    Doubly Occupied:                                                      

       1A1   -15.741507     2A1   -15.647973     3A1    -1.715623  
       1B2    -0.891263     1B1    -0.891263     4A1    -0.640754  
       5A1    -0.619277  

    Virtual:                                                              

       2B2     0.409099     2B1     0.409099     6A1     0.657594  
       3B2     0.678770     3B1     0.678770     7A1     0.699454  
       8A1     1.008302     4B1     1.284371     4B2     1.284371  
       9A1     1.470511    10A1     3.965568  

    Final Occupation by Irrep:
             A1    A2    B1    B2 
    DOCC [     5,    0,    1,    1 ]

  Energy converged.

  @DF-RHF Final Energy:  -107.49556803335547

   => Energetics <=

    Nuclear Repulsion Energy =             37.0424046012999995
    One-Electron Energy =                -216.7806224580115781
    Two-Electron Energy =                  72.2426498233561034
    Total Energy =                       -107.4955680333554682



Properties will be evaluated at   0.000000,   0.000000,   0.000000 [a0]

Properties computed using the SCF density matrix

  Nuclear Dipole Moment: [e a0]
     X:     9.2597      Y:     0.0000      Z:     0.0000

  Electronic Dipole Moment: [e a0]
     X:    -9.2597      Y:     0.0000      Z:     0.0000

  Dipole Moment: [e a0]
     X:    -0.0000      Y:     0.0000      Z:     0.0000     Total:     0.0000

  Dipole Moment: [D]
     X:    -0.0000      Y:     0.0000      Z:     0.0000     Total:     0.0000


*** tstop() called on comp0002 at Wed Jul 10 15:06:08 2019
Module time:
	user time   =       6.76 seconds =       0.11 minutes
	system time =       7.14 seconds =       0.12 minutes
	total time  =          2 seconds =       0.03 minutes
Total time:
	user time   =    4944.28 seconds =      82.40 minutes
	system time =     529.94 seconds =       8.83 minutes
	total time  =       5417 seconds =      90.28 minutes

*** tstart() called on comp0002
*** at Wed Jul 10 15:06:08 2019

   => Loading Basis Set <=

    Name: 6-31G
    Role: ORBITAL
    Keyword: BASIS
    atoms 1-2 entry N          line   102 file /usr/local/psi4/share/psi4/basis/6-31g.gbs 


         ---------------------------------------------------------
                                   SCF
            by Justin Turney, Rob Parrish, Andy Simmonett
                             and Daniel Smith
                              RHF Reference
                       16 Threads,    500 MiB Core
         ---------------------------------------------------------

  ==> Geometry <==

    Molecular point group: c2v
    Full point group: C_inf_v

    Geometry (in Angstrom), charge = 0, multiplicity = 1:

       Center              X                  Y                   Z               Mass       
    ------------   -----------------  -----------------  -----------------  -----------------
         N            0.700000000000     0.000000000000     0.000000000000    14.003074004780
         N            0.000000000000     0.000000000000     0.000000000000    14.003074004780

  Running in c2v symmetry.

  Rotational constants: A = ************  B =      2.45684  C =      2.45684 [cm^-1]
  Rotational constants: A = ************  B =  73654.23650  C =  73654.23650 [MHz]
  Nuclear repulsion =   37.042404601299999

  Charge       = 0
  Multiplicity = 1
  Electrons    = 14
  Nalpha       = 7
  Nbeta        = 7

  ==> Algorithm <==

  SCF Algorithm Type is PK.
  DIIS enabled.
  MOM disabled.
  Fractional occupation disabled.
  Guess Type is SAD.
  Energy threshold   = 1.00e-08
  Density threshold  = 1.00e-08
  Integral threshold = 0.00e+00

  ==> Primary Basis <==

  Basis Set: 6-31G
    Blend: 6-31G
    Number of shells: 10
    Number of basis function: 18
    Number of Cartesian functions: 18
    Spherical Harmonics?: false
    Max angular momentum: 1

  ==> Pre-Iterations <==

   -------------------------------------------------------
    Irrep   Nso     Nmo     Nalpha   Nbeta   Ndocc  Nsocc
   -------------------------------------------------------
     A1        10      10       0       0       0       0
     A2         0       0       0       0       0       0
     B1         4       4       0       0       0       0
     B2         4       4       0       0       0       0
   -------------------------------------------------------
    Total      18      18       7       7       7       0
   -------------------------------------------------------

  ==> Integral Setup <==

  Using in-core PK algorithm.
   Calculation information:
      Number of atoms:                   2
      Number of AO shells:              10
      Number of primitives:             28
      Number of atomic orbitals:        18
      Number of basis functions:        18

      Integral cutoff                 1.00e-12
      Number of threads:                16

  Performing in-core PK
  Using 29412 doubles for integral storage.
  We computed 5373 shell quartets total.
  Whereas there are 1540 unique shell quartets.
   248.90 percent of shell quartets recomputed by reordering.

  ==> DiskJK: Disk-Based J/K Matrices <==

    J tasked:                  Yes
    K tasked:                  Yes
    wK tasked:                  No
    Memory (MB):               375
    Schwarz Cutoff:          1E-12

    OpenMP threads:             16

  Minimum eigenvalue in the overlap matrix is 6.2220959217E-04.
  Using Symmetric Orthogonalization.

  SCF Guess: Superposition of Atomic Densities via on-the-fly atomic UHF.

  ==> Iterations <==

                        Total Energy        Delta E     RMS |[F,P]|

   @RHF iter   0:  -110.23820646329689   -1.10238e+02   7.73553e-01 
   @RHF iter   1:  -107.48396529127203    2.75424e+00   1.96005e-02 
   @RHF iter   2:  -107.49524517743562   -1.12799e-02   3.80146e-03 DIIS
   @RHF iter   3:  -107.49574409236723   -4.98915e-04   6.88265e-04 DIIS
   @RHF iter   4:  -107.49576955170778   -2.54593e-05   1.24937e-04 DIIS
   @RHF iter   5:  -107.49577011431172   -5.62604e-07   1.05479e-05 DIIS
   @RHF iter   6:  -107.49577011850340   -4.19168e-09   7.23658e-07 DIIS
   @RHF iter   7:  -107.49577011852209   -1.86873e-11   2.67501e-08 DIIS
   @RHF iter   8:  -107.49577011852202    7.10543e-14   2.29655e-09 DIIS

  ==> Post-Iterations <==

    Orbital Energies [Eh]
    ---------------------

    Doubly Occupied:                                                      

       1A1   -15.741432     2A1   -15.647893     3A1    -1.715589  
       1B1    -0.891295     1B2    -0.891295     4A1    -0.640763  
       5A1    -0.619251  

    Virtual:                                                              

       2B1     0.409095     2B2     0.409095     6A1     0.657618  
       3B1     0.678712     3B2     0.678712     7A1     0.699435  
       8A1     1.008317     4B1     1.284345     4B2     1.284345  
       9A1     1.470531    10A1     3.965537  

    Final Occupation by Irrep:
             A1    A2    B1    B2 
    DOCC [     5,    0,    1,    1 ]

  Energy converged.

  @RHF Final Energy:  -107.49577011852202

   => Energetics <=

    Nuclear Repulsion Energy =             37.0424046012999995
    One-Electron Energy =                -216.7813139578902621
    Two-Electron Energy =                  72.2431392380682382
    Total Energy =                       -107.4957701185220174



Properties will be evaluated at   0.000000,   0.000000,   0.000000 [a0]

Properties computed using the SCF density matrix

  Nuclear Dipole Moment: [e a0]
     X:     9.2597      Y:     0.0000      Z:     0.0000

  Electronic Dipole Moment: [e a0]
     X:    -9.2597      Y:     0.0000      Z:     0.0000

  Dipole Moment: [e a0]
     X:    -0.0000      Y:     0.0000      Z:     0.0000     Total:     0.0000

  Dipole Moment: [D]
     X:    -0.0000      Y:     0.0000      Z:     0.0000     Total:     0.0000


*** tstop() called on comp0002 at Wed Jul 10 15:06:09 2019
Module time:
	user time   =       2.18 seconds =       0.04 minutes
	system time =       1.19 seconds =       0.02 minutes
	total time  =          1 seconds =       0.02 minutes
Total time:
	user time   =    4946.56 seconds =      82.44 minutes
	system time =     531.35 seconds =       8.86 minutes
	total time  =       5418 seconds =      90.30 minutes
 MINTS: Wrapper to libmints.
   by Justin Turney

   Calculation information:
      Number of threads:                16
      Number of atoms:                   2
      Number of AO shells:              10
      Number of SO shells:              10
      Number of primitives:             28
      Number of atomic orbitals:        18
      Number of basis functions:        18

      Number of irreps:                  4
      Integral cutoff                 0.00e+00
      Number of functions per irrep: [  10    0    4    4 ]

 OEINTS: Overlap, kinetic, potential, dipole, and quadrupole integrals
         stored in file 35.

      Computing two-electron integrals...done
      Computed 4350 non-zero two-electron integrals.
        Stored in file 33.


         ---------------------------------------------------------
                          Configuration Interaction
                            (a 'D E T C I' module)

                 C. David Sherrill, Daniel G. A. Smith, and
                              Matt L. Leininger
         ---------------------------------------------------------


   ==> Parameters <==

    EX LEVEL       =       14      H0 BLOCKSIZE  =     1000
    VAL EX LEVEL   =        0      H0 GUESS SIZE =     1000
    H0COUPLINGSIZE =        0      H0 COUPLING   =       NO
    MAXITER        =       24      NUM PRINT     =       20
    NUM ROOTS      =        1      ICORE         =        1
    PRINT LVL      =        1      FCI           =      YES
    R CONV         = 1.00e-04      MIXED         =      YES
    E CONV         = 1.00e-06      MIXED4        =      YES
    R4S            =       NO      REPL OTF      =       NO
    DIAG METHOD    =      SEM      FOLLOW ROOT   =        0
    PRECONDITIONER = DAVIDSON      UPDATE        = DAVIDSON
    S              =   0.0000      Ms0           =      YES
    GUESS VECTOR   =  H0BLOCK      OPENTYPE      =     NONE
    COLLAPSE SIZE  =        1      HD AVG        = EVANGELISTI
    MAX NUM VECS   =       25      REF SYM       =     AUTO
    IOPEN        =       NO

    EX ALLOW       =  1  1  1  1  1  1  1  1  1  1  1  1  1  1 
    STATE AVERAGE  =  0(1.00) 

   ==> CI Orbital and Space information <==

   ------------------------------------------------------
               Space    Total    A1    A2    B1    B2
   ------------------------------------------------------
                 Nso       18    10     0     4     4
                 Nmo       18    10     0     4     4
               Ndocc        7     5     0     1     1
               Nsocc        0     0     0     0     0
   ------------------------------------------------------
                       CI Spaces
   ------------------------------------------------------
        Dropped DOCC        0     0     0     0     0
              Active       18    10     0     4     4
        Dropped UOCC        0     0     0     0     0
   ------------------------------------------------------

   ==> Setting up CI strings <==

    There are 31824 alpha and 31824 beta strings
    The CI space requires 253216512 (2.53E+08) determinants and 4 blocks

   ==> Transforming CI integrals <==

	Presorting SO-basis two-electron integrals.
	Sorting File: SO Ints (nn|nn) nbuckets = 1
	Transforming the one-electron integrals and constructing Fock matrices
	Starting first half-transformation.
	Sorting half-transformed integrals.
	First half integral transformation complete.
	Starting second half-transformation.
	Two-electron integral transformation complete.

   ==> Starting CI iterations <==

    H0 Block Eigenvalue = -107.58966747

    Simultaneous Expansion Method (Block Davidson Method)
    Using 1 initial trial vectors

     Iter   Root       Total Energy       Delta E      C RMS

   @CI  0:     0   -107.589667470405   -1.4463E+02   5.7034E-01  
   @CI  1:     0   -107.641260294394   -5.1593E-02   1.1848E-01  
   @CI  2:     0   -107.643109745752   -1.8495E-03   2.9663E-02  
   @CI  3:     0   -107.643235900543   -1.2615E-04   8.6869E-03  
   @CI  4:     0   -107.643247213673   -1.1313E-05   3.0373E-03  
   @CI  5:     0   -107.643248678566   -1.4649E-06   1.1195E-03  
   @CI  6:     0   -107.643248847131   -1.6856E-07   3.6458E-04  
   @CI  7:     0   -107.643248864199   -1.7068E-08   1.1827E-04  
   @CI  8:     0   -107.643248865848   -1.6499E-09   3.7079E-05 c

   ==> Energetics <==

    SCF energy =         -107.495770118522017
    Total CI energy =    -107.643248865848420

   ==> FCI root 0 information <==

    FCI Root 0 energy =  -107.643248865848420

   The 20 most important determinants:

    *   1   -0.976999  ( 7824, 7824)  1A1X 2A1X 3A1X 4A1X 5A1X 1B1X 1B2X 
    *   2    0.040022  (24050,24050)  1A1X 2A1X 3A1X 4A1X 1B1X 1B2X 2B1X 
    *   3    0.040022  (17536,17536)  1A1X 2A1X 3A1X 4A1X 1B1X 1B2X 2B2X 
    *   4    0.036562  ( 9312, 9312)  1A1X 2A1X 3A1X 4A1X 5A1X 1B1X 2B2X 
    *   5    0.036562  ( 8076, 8076)  1A1X 2A1X 3A1X 4A1X 5A1X 1B2X 2B1X 
    *   6    0.030732  (12808,12808)  1A1X 2A1X 3A1X 4A1X 5A1X 1B1X 4B2X 
    *   7    0.030732  ( 8700, 8700)  1A1X 2A1X 3A1X 4A1X 5A1X 1B2X 4B1X 
    *   8    0.029416  ( 9312,12808)  1A1X 2A1X 3A1X 4A1X 5A1X 1B1X 2B2A 4B2B 
    *   9    0.029416  (12808, 9312)  1A1X 2A1X 3A1X 4A1X 5A1X 1B1X 2B2B 4B2A 
    *  10    0.029416  ( 8076, 8700)  1A1X 2A1X 3A1X 4A1X 5A1X 1B2X 2B1A 4B1B 
    *  11    0.029416  ( 8700, 8076)  1A1X 2A1X 3A1X 4A1X 5A1X 1B2X 2B1B 4B1A 
    *  12   -0.026263  ( 8076, 9312)  1A1X 2A1X 3A1X 4A1X 5A1X 1B1B 1B2A 2B1A 2B2B 
    *  13   -0.026263  ( 9312, 8076)  1A1X 2A1X 3A1X 4A1X 5A1X 1B1A 1B2B 2B1B 2B2A 
    *  14    0.023878  ( 7846, 7846)  1A1X 2A1X 3A1X 5A1X 1B1X 1B2X 8A1X 
    *  15   -0.021531  ( 8700,12808)  1A1X 2A1X 3A1X 4A1X 5A1X 1B1B 1B2A 4B1A 4B2B 
    *  16   -0.021531  (12808, 8700)  1A1X 2A1X 3A1X 4A1X 5A1X 1B1A 1B2B 4B1B 4B2A 
    *  17    0.021230  ( 7845, 7845)  1A1X 2A1X 3A1X 4A1X 1B1X 1B2X 8A1X 
    *  18    0.020909  ( 8328, 8328)  1A1X 2A1X 3A1X 4A1X 5A1X 1B2X 3B1X 
    *  19    0.020909  (10800,10800)  1A1X 2A1X 3A1X 4A1X 5A1X 1B1X 3B2X 
    *  20   -0.020557  ( 8700, 9312)  1A1X 2A1X 3A1X 4A1X 5A1X 1B1B 1B2A 4B1A 2B2B 

		 "A good bug is a dead bug" 

			 - Starship Troopers

		 "I didn't write FORTRAN.  That's the problem."

			 - Edward Valeev
Molecule: Setting geometry variable R to 0.800000

*** tstart() called on comp0002
*** at Wed Jul 10 15:57:31 2019

   => Loading Basis Set <=

    Name: 6-31G
    Role: ORBITAL
    Keyword: BASIS
    atoms 1-2 entry N          line   102 file /usr/local/psi4/share/psi4/basis/6-31g.gbs 


         ---------------------------------------------------------
                                   SCF
            by Justin Turney, Rob Parrish, Andy Simmonett
                             and Daniel Smith
                              RHF Reference
                       16 Threads,    500 MiB Core
         ---------------------------------------------------------

  ==> Geometry <==

    Molecular point group: c2v
    Full point group: C_inf_v

    Geometry (in Angstrom), charge = 0, multiplicity = 1:

       Center              X                  Y                   Z               Mass       
    ------------   -----------------  -----------------  -----------------  -----------------
         N            0.800000000000     0.000000000000     0.000000000000    14.003074004780
         N            0.000000000000     0.000000000000     0.000000000000    14.003074004780

  Running in c2v symmetry.

  Rotational constants: A = ************  B =      1.88102  C =      1.88102 [cm^-1]
  Rotational constants: A = ************  B =  56391.52482  C =  56391.52482 [MHz]
  Nuclear repulsion =   32.412104026137499

  Charge       = 0
  Multiplicity = 1
  Electrons    = 14
  Nalpha       = 7
  Nbeta        = 7

  ==> Algorithm <==

  SCF Algorithm Type is DF.
  DIIS enabled.
  MOM disabled.
  Fractional occupation disabled.
  Guess Type is SAD.
  Energy threshold   = 1.00e-06
  Density threshold  = 1.00e-06
  Integral threshold = 0.00e+00

  ==> Primary Basis <==

  Basis Set: 6-31G
    Blend: 6-31G
    Number of shells: 10
    Number of basis function: 18
    Number of Cartesian functions: 18
    Spherical Harmonics?: false
    Max angular momentum: 1

   => Loading Basis Set <=

    Name: (6-31G AUX)
    Role: JKFIT
    Keyword: DF_BASIS_SCF
    atoms 1-2 entry N          line   171 file /usr/local/psi4/share/psi4/basis/cc-pvdz-jkfit.gbs 

  ==> Pre-Iterations <==

   -------------------------------------------------------
    Irrep   Nso     Nmo     Nalpha   Nbeta   Ndocc  Nsocc
   -------------------------------------------------------
     A1        10      10       0       0       0       0
     A2         0       0       0       0       0       0
     B1         4       4       0       0       0       0
     B2         4       4       0       0       0       0
   -------------------------------------------------------
    Total      18      18       7       7       7       0
   -------------------------------------------------------

  ==> Integral Setup <==

  ==> DiskDFJK: Density-Fitted J/K Matrices <==

    J tasked:                  Yes
    K tasked:                  Yes
    wK tasked:                  No
    OpenMP threads:             16
    Integrals threads:          16
    Memory (MB):               375
    Algorithm:                Core
    Integral Cache:           NONE
    Schwarz Cutoff:          1E-12
    Fitting Condition:       1E-12

   => Auxiliary Basis Set <=

  Basis Set: (6-31G AUX)
    Blend: CC-PVDZ-JKFIT
    Number of shells: 48
    Number of basis function: 162
    Number of Cartesian functions: 162
    Spherical Harmonics?: false
    Max angular momentum: 3

  Minimum eigenvalue in the overlap matrix is 1.3377802126E-03.
  Using Symmetric Orthogonalization.

  SCF Guess: Superposition of Atomic Densities via on-the-fly atomic UHF.

  ==> Iterations <==

                           Total Energy        Delta E     RMS |[F,P]|

   @DF-RHF iter   0:  -110.11206378873959   -1.10112e+02   4.05860e-01 
   @DF-RHF iter   1:  -108.28849843358236    1.82357e+00   1.02302e-02 
   @DF-RHF iter   2:  -108.29505846908475   -6.56004e-03   2.06624e-03 DIIS
   @DF-RHF iter   3:  -108.29534371804944   -2.85249e-04   1.97845e-04 DIIS
   @DF-RHF iter   4:  -108.29534602326397   -2.30521e-06   3.32381e-05 DIIS
   @DF-RHF iter   5:  -108.29534612245865   -9.91947e-08   4.22336e-06 DIIS
   @DF-RHF iter   6:  -108.29534612442382   -1.96516e-09   4.82199e-07 DIIS

  ==> Post-Iterations <==

    Orbital Energies [Eh]
    ---------------------

    Doubly Occupied:                                                      

       1A1   -15.676245     2A1   -15.640780     3A1    -1.717790  
       1B1    -0.797784     1B2    -0.797784     4A1    -0.662210  
       5A1    -0.643100  

    Virtual:                                                              

       2B2     0.339515     2B1     0.339515     6A1     0.650429  
       7A1     0.706513     3B1     0.732180     3B2     0.732180  
       8A1     0.991435     4B2     1.172970     4B1     1.172970  
       9A1     1.425133    10A1     2.898778  

    Final Occupation by Irrep:
             A1    A2    B1    B2 
    DOCC [     5,    0,    1,    1 ]

  Energy converged.

  @DF-RHF Final Energy:  -108.29534612442382

   => Energetics <=

    Nuclear Repulsion Energy =             32.4121040261374986
    One-Electron Energy =                -209.5435130745448191
    Two-Electron Energy =                  68.8360629239834907
    Total Energy =                       -108.2953461244238156



Properties will be evaluated at   0.000000,   0.000000,   0.000000 [a0]

Properties computed using the SCF density matrix

  Nuclear Dipole Moment: [e a0]
     X:    10.5825      Y:     0.0000      Z:     0.0000

  Electronic Dipole Moment: [e a0]
     X:   -10.5825      Y:     0.0000      Z:     0.0000

  Dipole Moment: [e a0]
     X:    -0.0000      Y:     0.0000      Z:     0.0000     Total:     0.0000

  Dipole Moment: [D]
     X:    -0.0000      Y:     0.0000      Z:     0.0000     Total:     0.0000


*** tstop() called on comp0002 at Wed Jul 10 15:57:32 2019
Module time:
	user time   =       6.42 seconds =       0.11 minutes
	system time =       8.44 seconds =       0.14 minutes
	total time  =          1 seconds =       0.02 minutes
Total time:
	user time   =    7733.62 seconds =     128.89 minutes
	system time =     849.53 seconds =      14.16 minutes
	total time  =       8501 seconds =     141.68 minutes

*** tstart() called on comp0002
*** at Wed Jul 10 15:57:32 2019

   => Loading Basis Set <=

    Name: 6-31G
    Role: ORBITAL
    Keyword: BASIS
    atoms 1-2 entry N          line   102 file /usr/local/psi4/share/psi4/basis/6-31g.gbs 


         ---------------------------------------------------------
                                   SCF
            by Justin Turney, Rob Parrish, Andy Simmonett
                             and Daniel Smith
                              RHF Reference
                       16 Threads,    500 MiB Core
         ---------------------------------------------------------

  ==> Geometry <==

    Molecular point group: c2v
    Full point group: C_inf_v

    Geometry (in Angstrom), charge = 0, multiplicity = 1:

       Center              X                  Y                   Z               Mass       
    ------------   -----------------  -----------------  -----------------  -----------------
         N            0.800000000000     0.000000000000     0.000000000000    14.003074004780
         N            0.000000000000     0.000000000000     0.000000000000    14.003074004780

  Running in c2v symmetry.

  Rotational constants: A = ************  B =      1.88102  C =      1.88102 [cm^-1]
  Rotational constants: A = ************  B =  56391.52482  C =  56391.52482 [MHz]
  Nuclear repulsion =   32.412104026137499

  Charge       = 0
  Multiplicity = 1
  Electrons    = 14
  Nalpha       = 7
  Nbeta        = 7

  ==> Algorithm <==

  SCF Algorithm Type is PK.
  DIIS enabled.
  MOM disabled.
  Fractional occupation disabled.
  Guess Type is SAD.
  Energy threshold   = 1.00e-08
  Density threshold  = 1.00e-08
  Integral threshold = 0.00e+00

  ==> Primary Basis <==

  Basis Set: 6-31G
    Blend: 6-31G
    Number of shells: 10
    Number of basis function: 18
    Number of Cartesian functions: 18
    Spherical Harmonics?: false
    Max angular momentum: 1

  ==> Pre-Iterations <==

   -------------------------------------------------------
    Irrep   Nso     Nmo     Nalpha   Nbeta   Ndocc  Nsocc
   -------------------------------------------------------
     A1        10      10       0       0       0       0
     A2         0       0       0       0       0       0
     B1         4       4       0       0       0       0
     B2         4       4       0       0       0       0
   -------------------------------------------------------
    Total      18      18       7       7       7       0
   -------------------------------------------------------

  ==> Integral Setup <==

  Using in-core PK algorithm.
   Calculation information:
      Number of atoms:                   2
      Number of AO shells:              10
      Number of primitives:             28
      Number of atomic orbitals:        18
      Number of basis functions:        18

      Integral cutoff                 1.00e-12
      Number of threads:                16

  Performing in-core PK
  Using 29412 doubles for integral storage.
  We computed 5373 shell quartets total.
  Whereas there are 1540 unique shell quartets.
   248.90 percent of shell quartets recomputed by reordering.

  ==> DiskJK: Disk-Based J/K Matrices <==

    J tasked:                  Yes
    K tasked:                  Yes
    wK tasked:                  No
    Memory (MB):               375
    Schwarz Cutoff:          1E-12

    OpenMP threads:             16

  Minimum eigenvalue in the overlap matrix is 1.3377802126E-03.
  Using Symmetric Orthogonalization.

  SCF Guess: Superposition of Atomic Densities via on-the-fly atomic UHF.

  ==> Iterations <==

                        Total Energy        Delta E     RMS |[F,P]|

   @RHF iter   0:  -110.11214360264754   -1.10112e+02   5.69171e-01 
   @RHF iter   1:  -108.28866150761239    1.82348e+00   1.48512e-02 
   @RHF iter   2:  -108.29522351687322   -6.56201e-03   3.29727e-03 DIIS
   @RHF iter   3:  -108.29550894467081   -2.85428e-04   2.52642e-04 DIIS
   @RHF iter   4:  -108.29551124746661   -2.30280e-06   4.46899e-05 DIIS
   @RHF iter   5:  -108.29551134675525   -9.92886e-08   5.59041e-06 DIIS
   @RHF iter   6:  -108.29551134872270   -1.96745e-09   6.08625e-07 DIIS
   @RHF iter   7:  -108.29551134874522   -2.25242e-11   2.29201e-08 DIIS
   @RHF iter   8:  -108.29551134874511    1.13687e-13   1.89320e-09 DIIS

  ==> Post-Iterations <==

    Orbital Energies [Eh]
    ---------------------

    Doubly Occupied:                                                      

       1A1   -15.676172     2A1   -15.640705     3A1    -1.717761  
       1B2    -0.797808     1B1    -0.797808     4A1    -0.662185  
       5A1    -0.643102  

    Virtual:                                                              

       2B2     0.339519     2B1     0.339519     6A1     0.650454  
       7A1     0.706476     3B2     0.732109     3B1     0.732109  
       8A1     0.991450     4B2     1.172938     4B1     1.172938  
       9A1     1.425162    10A1     2.898754  

    Final Occupation by Irrep:
             A1    A2    B1    B2 
    DOCC [     5,    0,    1,    1 ]

  Energy converged.

  @RHF Final Energy:  -108.29551134874511

   => Energetics <=

    Nuclear Repulsion Energy =             32.4121040261374986
    One-Electron Energy =                -209.5441473781898480
    Two-Electron Energy =                  68.8365320033072265
    PCM Polarization Energy =               0.0000000000000000
    Total Energy =                       -108.2955113487451086

    Alert: EFP and PCM quantities not currently incorporated into SCF psivars.

Properties will be evaluated at   0.000000,   0.000000,   0.000000 [a0]

Properties computed using the SCF density matrix

  Nuclear Dipole Moment: [e a0]
     X:    10.5825      Y:     0.0000      Z:     0.0000

  Electronic Dipole Moment: [e a0]
     X:   -10.5825      Y:     0.0000      Z:     0.0000

  Dipole Moment: [e a0]
     X:     0.0000      Y:     0.0000      Z:     0.0000     Total:     0.0000

  Dipole Moment: [D]
     X:     0.0000      Y:     0.0000      Z:     0.0000     Total:     0.0000


*** tstop() called on comp0002 at Wed Jul 10 15:57:33 2019
Module time:
	user time   =       3.73 seconds =       0.06 minutes
	system time =       1.62 seconds =       0.03 minutes
	total time  =          1 seconds =       0.02 minutes
Total time:
	user time   =    7737.45 seconds =     128.96 minutes
	system time =     851.30 seconds =      14.19 minutes
	total time  =       8502 seconds =     141.70 minutes
 MINTS: Wrapper to libmints.
   by Justin Turney

   Calculation information:
      Number of threads:                16
      Number of atoms:                   2
      Number of AO shells:              10
      Number of SO shells:              10
      Number of primitives:             28
      Number of atomic orbitals:        18
      Number of basis functions:        18

      Number of irreps:                  4
      Integral cutoff                 0.00e+00
      Number of functions per irrep: [  10    0    4    4 ]

 OEINTS: Overlap, kinetic, potential, dipole, and quadrupole integrals
         stored in file 35.

      Computing two-electron integrals...done
      Computed 4350 non-zero two-electron integrals.
        Stored in file 33.


         ---------------------------------------------------------
                          Configuration Interaction
                            (a 'D E T C I' module)

                 C. David Sherrill, Daniel G. A. Smith, and
                              Matt L. Leininger
         ---------------------------------------------------------


   ==> Parameters <==

    EX LEVEL       =       14      H0 BLOCKSIZE  =     1000
    VAL EX LEVEL   =        0      H0 GUESS SIZE =     1000
    H0COUPLINGSIZE =        0      H0 COUPLING   =       NO
    MAXITER        =       24      NUM PRINT     =       20
    NUM ROOTS      =        1      ICORE         =        1
    PRINT LVL      =        1      FCI           =      YES
    R CONV         = 1.00e-04      MIXED         =      YES
    E CONV         = 1.00e-06      MIXED4        =      YES
    R4S            =       NO      REPL OTF      =       NO
    DIAG METHOD    =      SEM      FOLLOW ROOT   =        0
    PRECONDITIONER = DAVIDSON      UPDATE        = DAVIDSON
    S              =   0.0000      Ms0           =      YES
    GUESS VECTOR   =  H0BLOCK      OPENTYPE      =     NONE
    COLLAPSE SIZE  =        1      HD AVG        = EVANGELISTI
    MAX NUM VECS   =       25      REF SYM       =     AUTO
    IOPEN        =       NO

    EX ALLOW       =  1  1  1  1  1  1  1  1  1  1  1  1  1  1 
    STATE AVERAGE  =  0(1.00) 

   ==> CI Orbital and Space information <==

   ------------------------------------------------------
               Space    Total    A1    A2    B1    B2
   ------------------------------------------------------
                 Nso       18    10     0     4     4
                 Nmo       18    10     0     4     4
               Ndocc        7     5     0     1     1
               Nsocc        0     0     0     0     0
   ------------------------------------------------------
                       CI Spaces
   ------------------------------------------------------
        Dropped DOCC        0     0     0     0     0
              Active       18    10     0     4     4
        Dropped UOCC        0     0     0     0     0
   ------------------------------------------------------

   ==> Setting up CI strings <==

    There are 31824 alpha and 31824 beta strings
    The CI space requires 253216512 (2.53E+08) determinants and 4 blocks

   ==> Transforming CI integrals <==

	Presorting SO-basis two-electron integrals.
	Sorting File: SO Ints (nn|nn) nbuckets = 1
	Transforming the one-electron integrals and constructing Fock matrices
	Starting first half-transformation.
	Sorting half-transformed integrals.
	First half integral transformation complete.
	Starting second half-transformation.
	Two-electron integral transformation complete.

   ==> Starting CI iterations <==

    H0 Block Eigenvalue = -108.40628332

    Simultaneous Expansion Method (Block Davidson Method)
    Using 1 initial trial vectors

     Iter   Root       Total Energy       Delta E      C RMS

   @CI  0:     0   -108.406283315177   -1.4082E+02   5.6706E-01  
   @CI  1:     0   -108.462610438924   -5.6327E-02   1.2705E-01  
   @CI  2:     0   -108.464820893610   -2.2105E-03   3.3988E-02  
   @CI  3:     0   -108.464990486051   -1.6959E-04   1.0715E-02  
   @CI  4:     0   -108.465009009034   -1.8523E-05   4.0826E-03  
   @CI  5:     0   -108.465011866090   -2.8571E-06   1.5956E-03  
   @CI  6:     0   -108.465012222801   -3.5671E-07   5.2600E-04  
   @CI  7:     0   -108.465012260474   -3.7674E-08   1.7460E-04  
   @CI  8:     0   -108.465012264545   -4.0704E-09   5.6485E-05 c

   ==> Energetics <==

    SCF energy =         -108.295511348745109
    Total CI energy =    -108.465012264544825

   ==> FCI root 0 information <==

    FCI Root 0 energy =  -108.465012264544825

   The 20 most important determinants:

    *   1    0.971506  ( 7824, 7824)  1A1X 2A1X 3A1X 4A1X 5A1X 1B1X 1B2X 
    *   2   -0.053132  ( 8076, 8076)  1A1X 2A1X 3A1X 4A1X 5A1X 1B2X 2B1X 
    *   3   -0.053132  ( 9312, 9312)  1A1X 2A1X 3A1X 4A1X 5A1X 1B1X 2B2X 
    *   4   -0.043978  (17537,17537)  1A1X 2A1X 3A1X 5A1X 1B1X 1B2X 2B2X 
    *   5   -0.043978  (24051,24051)  1A1X 2A1X 3A1X 5A1X 1B1X 1B2X 2B1X 
    *   6    0.037301  ( 8076, 9312)  1A1X 2A1X 3A1X 4A1X 5A1X 1B1B 1B2A 2B1A 2B2B 
    *   7    0.037301  ( 9312, 8076)  1A1X 2A1X 3A1X 4A1X 5A1X 1B1A 1B2B 2B1B 2B2A 
    *   8   -0.032979  ( 9312,12808)  1A1X 2A1X 3A1X 4A1X 5A1X 1B1X 2B2A 4B2B 
    *   9   -0.032979  (12808, 9312)  1A1X 2A1X 3A1X 4A1X 5A1X 1B1X 2B2B 4B2A 
    *  10   -0.032979  ( 8076, 8700)  1A1X 2A1X 3A1X 4A1X 5A1X 1B2X 2B1A 4B1B 
    *  11   -0.032979  ( 8700, 8076)  1A1X 2A1X 3A1X 4A1X 5A1X 1B2X 2B1B 4B1A 
    *  12   -0.028145  (12808,12808)  1A1X 2A1X 3A1X 4A1X 5A1X 1B1X 4B2X 
    *  13   -0.028145  ( 8700, 8700)  1A1X 2A1X 3A1X 4A1X 5A1X 1B2X 4B1X 
    *  14   -0.026226  ( 7824, 9564)  1A1X 2A1X 3A1X 4A1X 5A1X 1B1A 1B2A 2B1B 2B2B 
    *  15   -0.026226  ( 9564, 7824)  1A1X 2A1X 3A1X 4A1X 5A1X 1B1B 1B2B 2B1A 2B2A 
    *  16   -0.024709  ( 7845, 7845)  1A1X 2A1X 3A1X 4A1X 1B1X 1B2X 8A1X 
    *  17   -0.023077  (10800,10800)  1A1X 2A1X 3A1X 4A1X 5A1X 1B1X 3B2X 
    *  18   -0.023077  ( 8328, 8328)  1A1X 2A1X 3A1X 4A1X 5A1X 1B2X 3B1X 
    *  19    0.022721  ( 8076,12808)  1A1X 2A1X 3A1X 4A1X 5A1X 1B1B 1B2A 2B1A 4B2B 
    *  20    0.022721  (12808, 8076)  1A1X 2A1X 3A1X 4A1X 5A1X 1B1A 1B2B 2B1B 4B2A 

		 "A good bug is a dead bug" 

			 - Starship Troopers

		 "I didn't write FORTRAN.  That's the problem."

			 - Edward Valeev
Molecule: Setting geometry variable R to 0.900000

*** tstart() called on comp0002
*** at Wed Jul 10 16:48:47 2019

   => Loading Basis Set <=

    Name: 6-31G
    Role: ORBITAL
    Keyword: BASIS
    atoms 1-2 entry N          line   102 file /usr/local/psi4/share/psi4/basis/6-31g.gbs 


         ---------------------------------------------------------
                                   SCF
            by Justin Turney, Rob Parrish, Andy Simmonett
                             and Daniel Smith
                              RHF Reference
                       16 Threads,    500 MiB Core
         ---------------------------------------------------------

  ==> Geometry <==

    Molecular point group: c2v
    Full point group: C_inf_v

    Geometry (in Angstrom), charge = 0, multiplicity = 1:

       Center              X                  Y                   Z               Mass       
    ------------   -----------------  -----------------  -----------------  -----------------
         N            0.900000000000     0.000000000000     0.000000000000    14.003074004780
         N            0.000000000000     0.000000000000     0.000000000000    14.003074004780

  Running in c2v symmetry.

  Rotational constants: A = ************  B =      1.48624  C =      1.48624 [cm^-1]
  Rotational constants: A = ************  B =  44556.26652  C =  44556.26652 [MHz]
  Nuclear repulsion =   28.810759134344444

  Charge       = 0
  Multiplicity = 1
  Electrons    = 14
  Nalpha       = 7
  Nbeta        = 7

  ==> Algorithm <==

  SCF Algorithm Type is DF.
  DIIS enabled.
  MOM disabled.
  Fractional occupation disabled.
  Guess Type is SAD.
  Energy threshold   = 1.00e-06
  Density threshold  = 1.00e-06
  Integral threshold = 0.00e+00

  ==> Primary Basis <==

  Basis Set: 6-31G
    Blend: 6-31G
    Number of shells: 10
    Number of basis function: 18
    Number of Cartesian functions: 18
    Spherical Harmonics?: false
    Max angular momentum: 1

   => Loading Basis Set <=

    Name: (6-31G AUX)
    Role: JKFIT
    Keyword: DF_BASIS_SCF
    atoms 1-2 entry N          line   171 file /usr/local/psi4/share/psi4/basis/cc-pvdz-jkfit.gbs 

  ==> Pre-Iterations <==

   -------------------------------------------------------
    Irrep   Nso     Nmo     Nalpha   Nbeta   Ndocc  Nsocc
   -------------------------------------------------------
[...]
		 "I didn't write FORTRAN.  That's the problem."

			 - Edward Valeev
Molecule: Setting geometry variable R to 6.000000

*** tstart() called on comp0002
*** at Fri Jul 12 07:53:29 2019

   => Loading Basis Set <=

    Name: 6-31G
    Role: ORBITAL
    Keyword: BASIS
    atoms 1-2 entry N          line   102 file /usr/local/psi4/share/psi4/basis/6-31g.gbs 


         ---------------------------------------------------------
                                   SCF
            by Justin Turney, Rob Parrish, Andy Simmonett
                             and Daniel Smith
                              RHF Reference
                       16 Threads,    500 MiB Core
         ---------------------------------------------------------

  ==> Geometry <==

    Molecular point group: c2v
    Full point group: C_inf_v

    Geometry (in Angstrom), charge = 0, multiplicity = 1:

       Center              X                  Y                   Z               Mass       
    ------------   -----------------  -----------------  -----------------  -----------------
         N            6.000000000000     0.000000000000     0.000000000000    14.003074004780
         N            0.000000000000     0.000000000000     0.000000000000    14.003074004780

  Running in c2v symmetry.

  Rotational constants: A = ************  B =      0.03344  C =      0.03344 [cm^-1]
  Rotational constants: A = ************  B =   1002.51600  C =   1002.51600 [MHz]
  Nuclear repulsion =    4.321613870151666

  Charge       = 0
  Multiplicity = 1
  Electrons    = 14
  Nalpha       = 7
  Nbeta        = 7

  ==> Algorithm <==

  SCF Algorithm Type is DF.
  DIIS enabled.
  MOM disabled.
  Fractional occupation disabled.
  Guess Type is SAD.
  Energy threshold   = 1.00e-06
  Density threshold  = 1.00e-06
  Integral threshold = 0.00e+00

  ==> Primary Basis <==

  Basis Set: 6-31G
    Blend: 6-31G
    Number of shells: 10
    Number of basis function: 18
    Number of Cartesian functions: 18
    Spherical Harmonics?: false
    Max angular momentum: 1

   => Loading Basis Set <=

    Name: (6-31G AUX)
    Role: JKFIT
    Keyword: DF_BASIS_SCF
    atoms 1-2 entry N          line   171 file /usr/local/psi4/share/psi4/basis/cc-pvdz-jkfit.gbs 

  ==> Pre-Iterations <==

   -------------------------------------------------------
    Irrep   Nso     Nmo     Nalpha   Nbeta   Ndocc  Nsocc
   -------------------------------------------------------
     A1        10      10       0       0       0       0
     A2         0       0       0       0       0       0
     B1         4       4       0       0       0       0
     B2         4       4       0       0       0       0
   -------------------------------------------------------
    Total      18      18       7       7       7       0
   -------------------------------------------------------

  ==> Integral Setup <==

  ==> DiskDFJK: Density-Fitted J/K Matrices <==

    J tasked:                  Yes
    K tasked:                  Yes
    wK tasked:                  No
    OpenMP threads:             16
    Integrals threads:          16
    Memory (MB):               375
    Algorithm:                Core
    Integral Cache:           NONE
    Schwarz Cutoff:          1E-12
    Fitting Condition:       1E-12

   => Auxiliary Basis Set <=

  Basis Set: (6-31G AUX)
    Blend: CC-PVDZ-JKFIT
    Number of shells: 48
    Number of basis function: 162
    Number of Cartesian functions: 162
    Spherical Harmonics?: false
    Max angular momentum: 3

  Minimum eigenvalue in the overlap matrix is 2.2274998149E-01.
  Using Symmetric Orthogonalization.

  SCF Guess: Superposition of Atomic Densities via on-the-fly atomic UHF.

  ==> Iterations <==

                           Total Energy        Delta E     RMS |[F,P]|

   @DF-RHF iter   0:  -107.58603193877592   -1.07586e+02   1.82405e-02 
   @DF-RHF iter   1:  -107.77305282925030   -1.87021e-01   9.69798e-03 
   @DF-RHF iter   2:  -107.77827682895051   -5.22400e-03   2.69611e-03 DIIS
   @DF-RHF iter   3:  -107.77885135011078   -5.74521e-04   3.95485e-04 DIIS
   @DF-RHF iter   4:  -107.77855054179734    3.00808e-04   2.61150e-03 DIIS
   @DF-RHF iter   5:  -107.77886098314815   -3.10441e-04   9.64583e-06 DIIS
   @DF-RHF iter   6:  -107.77886105647015   -7.33220e-08   1.55013e-05 DIIS
   @DF-RHF iter   7:  -107.77886098693928    6.95309e-08   2.43286e-06 DIIS
   @DF-RHF iter   8:  -107.77886098530271    1.63656e-09   1.44176e-07 DIIS

  ==> Post-Iterations <==

    Orbital Energies [Eh]
    ---------------------

    Doubly Occupied:                                                      

       1A1   -15.799315     2A1   -15.799304     3A1    -1.009952  
       4A1    -1.008175     5A1    -0.281218     1B2    -0.280037  
       1B1    -0.280037  

    Virtual:                                                              

       2B1    -0.192588     2B2    -0.192588     6A1    -0.191210  
       7A1     0.892238     3B1     0.892282     3B2     0.892282  
       4B2     0.892326     4B1     0.892326     8A1     0.892526  
       9A1     0.942045    10A1     0.942866  

    Final Occupation by Irrep:
             A1    A2    B1    B2 
    DOCC [     5,    0,    1,    1 ]

  Energy converged.

  @DF-RHF Final Energy:  -107.77886098530271

   => Energetics <=

    Nuclear Repulsion Energy =              4.3216138701516664
    One-Electron Energy =                -155.2848747478433040
    Two-Electron Energy =                  43.1843998923889032
    PCM Polarization Energy =               0.0000000000000000
    Total Energy =                       -107.7788609853027140

    Alert: EFP and PCM quantities not currently incorporated into SCF psivars.

Properties will be evaluated at   0.000000,   0.000000,   0.000000 [a0]

Properties computed using the SCF density matrix

  Nuclear Dipole Moment: [e a0]
     X:    79.3685      Y:     0.0000      Z:     0.0000

  Electronic Dipole Moment: [e a0]
     X:   -79.3685      Y:     0.0000      Z:     0.0000

  Dipole Moment: [e a0]
     X:    -0.0000      Y:     0.0000      Z:     0.0000     Total:     0.0000

  Dipole Moment: [D]
     X:    -0.0000      Y:     0.0000      Z:     0.0000     Total:     0.0000


*** tstop() called on comp0002 at Fri Jul 12 07:53:32 2019
Module time:
	user time   =      10.84 seconds =       0.18 minutes
	system time =      15.49 seconds =       0.26 minutes
	total time  =          3 seconds =       0.05 minutes
Total time:
	user time   =  118596.26 seconds =    1976.60 minutes
	system time =   18154.27 seconds =     302.57 minutes
	total time  =     152261 seconds =    2537.68 minutes

*** tstart() called on comp0002
*** at Fri Jul 12 07:53:32 2019

   => Loading Basis Set <=

    Name: 6-31G
    Role: ORBITAL
    Keyword: BASIS
    atoms 1-2 entry N          line   102 file /usr/local/psi4/share/psi4/basis/6-31g.gbs 


         ---------------------------------------------------------
                                   SCF
            by Justin Turney, Rob Parrish, Andy Simmonett
                             and Daniel Smith
                              RHF Reference
                       16 Threads,    500 MiB Core
         ---------------------------------------------------------

  ==> Geometry <==

    Molecular point group: c2v
    Full point group: C_inf_v

    Geometry (in Angstrom), charge = 0, multiplicity = 1:

       Center              X                  Y                   Z               Mass       
    ------------   -----------------  -----------------  -----------------  -----------------
         N            6.000000000000     0.000000000000     0.000000000000    14.003074004780
         N            0.000000000000     0.000000000000     0.000000000000    14.003074004780

  Running in c2v symmetry.

  Rotational constants: A = ************  B =      0.03344  C =      0.03344 [cm^-1]
  Rotational constants: A = ************  B =   1002.51600  C =   1002.51600 [MHz]
  Nuclear repulsion =    4.321613870151666

  Charge       = 0
  Multiplicity = 1
  Electrons    = 14
  Nalpha       = 7
  Nbeta        = 7

  ==> Algorithm <==

  SCF Algorithm Type is PK.
  DIIS enabled.
  MOM disabled.
  Fractional occupation disabled.
  Guess Type is SAD.
  Energy threshold   = 1.00e-08
  Density threshold  = 1.00e-08
  Integral threshold = 0.00e+00

  ==> Primary Basis <==

  Basis Set: 6-31G
    Blend: 6-31G
    Number of shells: 10
    Number of basis function: 18
    Number of Cartesian functions: 18
    Spherical Harmonics?: false
    Max angular momentum: 1

  ==> Pre-Iterations <==

   -------------------------------------------------------
    Irrep   Nso     Nmo     Nalpha   Nbeta   Ndocc  Nsocc
   -------------------------------------------------------
     A1        10      10       0       0       0       0
     A2         0       0       0       0       0       0
     B1         4       4       0       0       0       0
     B2         4       4       0       0       0       0
   -------------------------------------------------------
    Total      18      18       7       7       7       0
   -------------------------------------------------------

  ==> Integral Setup <==

  Using in-core PK algorithm.
   Calculation information:
      Number of atoms:                   2
      Number of AO shells:              10
      Number of primitives:             28
      Number of atomic orbitals:        18
      Number of basis functions:        18

      Integral cutoff                 1.00e-12
      Number of threads:                16

  Performing in-core PK
  Using 29412 doubles for integral storage.
  We computed 3128 shell quartets total.
  Whereas there are 1540 unique shell quartets.
   103.12 percent of shell quartets recomputed by reordering.

  ==> DiskJK: Disk-Based J/K Matrices <==

    J tasked:                  Yes
    K tasked:                  Yes
    wK tasked:                  No
    Memory (MB):               375
    Schwarz Cutoff:          1E-12

    OpenMP threads:             16

  Minimum eigenvalue in the overlap matrix is 2.2274998149E-01.
  Using Symmetric Orthogonalization.

  SCF Guess: Superposition of Atomic Densities via on-the-fly atomic UHF.

  ==> Iterations <==

                        Total Energy        Delta E     RMS |[F,P]|

   @RHF iter   0:  -107.58604138319207   -1.07586e+02   3.61289e-02 
   @RHF iter   1:  -107.77307129098693   -1.87030e-01   1.78509e-02 
   @RHF iter   2:  -107.77829444753785   -5.22316e-03   4.82093e-03 DIIS
   @RHF iter   3:  -107.77886884744859   -5.74400e-04   6.56522e-04 DIIS
   @RHF iter   4:  -107.77887822492519   -9.37748e-06   8.74322e-06 DIIS
   @RHF iter   5:  -107.77887820542090    1.95043e-08   4.49924e-05 DIIS
   @RHF iter   6:  -107.77887822480233   -1.93814e-08   1.12131e-05 DIIS
   @RHF iter   7:  -107.77887822638225   -1.57992e-09   1.05828e-07 DIIS
   @RHF iter   8:  -107.77887822639914   -1.68967e-11   4.10571e-07 DIIS
   @RHF iter   9:  -107.77887822638201    1.71383e-11   1.92937e-08 DIIS
   @RHF iter  10:  -107.77887822638193    7.10543e-14   2.53412e-09 DIIS

  ==> Post-Iterations <==

    Orbital Energies [Eh]
    ---------------------

    Doubly Occupied:                                                      

       1A1   -15.799341     2A1   -15.799330     3A1    -1.009963  
       4A1    -1.008186     5A1    -0.281232     1B2    -0.280050  
       1B1    -0.280050  

    Virtual:                                                              

       2B1    -0.192601     2B2    -0.192601     6A1    -0.191223  
       7A1     0.892127     3B1     0.892171     3B2     0.892171  
       4B1     0.892218     4B2     0.892218     8A1     0.892419  
       9A1     0.942037    10A1     0.942858  

    Final Occupation by Irrep:
             A1    A2    B1    B2 
    DOCC [     5,    0,    1,    1 ]

  Energy converged.

  @RHF Final Energy:  -107.77887822638193

   => Energetics <=

    Nuclear Repulsion Energy =              4.3216138701516664
    One-Electron Energy =                -155.2846815105613416
    Two-Electron Energy =                  43.1841894140277418
    Total Energy =                       -107.7788782263819201



Properties will be evaluated at   0.000000,   0.000000,   0.000000 [a0]

Properties computed using the SCF density matrix

  Nuclear Dipole Moment: [e a0]
     X:    79.3685      Y:     0.0000      Z:     0.0000

  Electronic Dipole Moment: [e a0]
     X:   -79.3685      Y:     0.0000      Z:     0.0000

  Dipole Moment: [e a0]
     X:    -0.0000      Y:     0.0000      Z:     0.0000     Total:     0.0000

  Dipole Moment: [D]
     X:    -0.0000      Y:     0.0000      Z:     0.0000     Total:     0.0000


*** tstop() called on comp0002 at Fri Jul 12 07:53:33 2019
Module time:
	user time   =       2.96 seconds =       0.05 minutes
	system time =       0.90 seconds =       0.02 minutes
	total time  =          1 seconds =       0.02 minutes
Total time:
	user time   =  118599.24 seconds =    1976.65 minutes
	system time =   18155.18 seconds =     302.59 minutes
	total time  =     152262 seconds =    2537.70 minutes
 MINTS: Wrapper to libmints.
   by Justin Turney

   Calculation information:
      Number of threads:                16
      Number of atoms:                   2
      Number of AO shells:              10
      Number of SO shells:              10
      Number of primitives:             28
      Number of atomic orbitals:        18
      Number of basis functions:        18

      Number of irreps:                  4
      Integral cutoff                 0.00e+00
      Number of functions per irrep: [  10    0    4    4 ]

 OEINTS: Overlap, kinetic, potential, dipole, and quadrupole integrals
         stored in file 35.

      Computing two-electron integrals...done
      Computed 4350 non-zero two-electron integrals.
        Stored in file 33.


         ---------------------------------------------------------
                          Configuration Interaction
                            (a 'D E T C I' module)

                 C. David Sherrill, Daniel G. A. Smith, and
                              Matt L. Leininger
         ---------------------------------------------------------


   ==> Parameters <==

    EX LEVEL       =       14      H0 BLOCKSIZE  =     1000
    VAL EX LEVEL   =        0      H0 GUESS SIZE =     1000
    H0COUPLINGSIZE =        0      H0 COUPLING   =       NO
    MAXITER        =       24      NUM PRINT     =       20
    NUM ROOTS      =        1      ICORE         =        1
    PRINT LVL      =        1      FCI           =      YES
    R CONV         = 1.00e-04      MIXED         =      YES
    E CONV         = 1.00e-06      MIXED4        =      YES
    R4S            =       NO      REPL OTF      =       NO
    DIAG METHOD    =      SEM      FOLLOW ROOT   =        0
    PRECONDITIONER = DAVIDSON      UPDATE        = DAVIDSON
    S              =   0.0000      Ms0           =      YES
    GUESS VECTOR   =  H0BLOCK      OPENTYPE      =     NONE
    COLLAPSE SIZE  =        1      HD AVG        = EVANGELISTI
    MAX NUM VECS   =       25      REF SYM       =     AUTO
    IOPEN        =       NO

    EX ALLOW       =  1  1  1  1  1  1  1  1  1  1  1  1  1  1 
    STATE AVERAGE  =  0(1.00) 

   ==> CI Orbital and Space information <==

   ------------------------------------------------------
               Space    Total    A1    A2    B1    B2
   ------------------------------------------------------
                 Nso       18    10     0     4     4
                 Nmo       18    10     0     4     4
               Ndocc        7     5     0     1     1
               Nsocc        0     0     0     0     0
   ------------------------------------------------------
                       CI Spaces
   ------------------------------------------------------
        Dropped DOCC        0     0     0     0     0
              Active       18    10     0     4     4
        Dropped UOCC        0     0     0     0     0
   ------------------------------------------------------

   ==> Setting up CI strings <==

    There are 31824 alpha and 31824 beta strings
    The CI space requires 253216512 (2.53E+08) determinants and 4 blocks

   ==> Transforming CI integrals <==

	Presorting SO-basis two-electron integrals.
	Sorting File: SO Ints (nn|nn) nbuckets = 1
	Transforming the one-electron integrals and constructing Fock matrices
	Starting first half-transformation.
	Sorting half-transformed integrals.
	First half integral transformation complete.
	Starting second half-transformation.
	Two-electron integral transformation complete.

   ==> Starting CI iterations <==

    H0 Block Eigenvalue = -108.74249410

    Simultaneous Expansion Method (Block Davidson Method)
    Using 1 initial trial vectors

(sem_iter): H0block_->H0b_diag[43][0] - H0block_->H0b_diag[48][0] = -0.221675 - 0.221675 = -0.443350 > 1.0E-8
(sem_iter): H0block_->H0b_diag[1][1] - H0block_->H0b_diag[2][1] = -0.190200 - 0.190200 = -0.380401 > 1.0E-8
     Iter   Root       Total Energy       Delta E      C RMS

   @CI  0:     0   -108.739190113832   -1.1306E+02   5.1254E-01  
   @CI  1:     0   -108.830199760720   -9.1010E-02   1.8732E-01  
   @CI  2:     0   -108.838733615130   -8.5339E-03   6.4121E-02  
   @CI  3:     0   -108.839726524324   -9.9291E-04   2.5956E-02  
   @CI  4:     0   -108.839865409148   -1.3888E-04   9.0008E-03  
   @CI  5:     0   -108.839880037354   -1.4628E-05   3.4695E-03  
   @CI  6:     0   -108.839882151439   -2.1141E-06   1.3952E-03  
   @CI  7:     0   -108.839882464481   -3.1304E-07   5.7535E-04  
   @CI  8:     0   -108.839882515835   -5.1354E-08   2.6383E-04  
   @CI  9:     0   -108.839882528031   -1.2196E-08   1.2501E-04  
   @CI 10:     0   -108.839882531553   -3.5223E-09   8.5974E-05 c

   ==> Energetics <==

    SCF energy =         -107.778878226381920
    Total CI energy =    -108.839882531553471

   ==> FCI root 0 information <==

    FCI Root 0 energy =  -108.839882531553471

   The 20 most important determinants:

    *   1   -0.161049  ( 8077, 9313)  1A1X 2A1X 3A1X 4A1X 1B1B 1B2A 6A1X 2B1A 2B2B 
    *   2   -0.161049  ( 9313, 8077)  1A1X 2A1X 3A1X 4A1X 1B1A 1B2B 6A1X 2B1B 2B2A 
    *   3    0.161049  (  121, 1753)  1A1X 2A1X 3A1X 4A1X 1B1A 1B2B 6A1X 2B1A 2B2B 
    *   4    0.161049  ( 1753,  121)  1A1X 2A1X 3A1X 4A1X 1B1B 1B2A 6A1X 2B1B 2B2A 
    *   5   -0.161049  ( 7825, 9565)  1A1X 2A1X 3A1X 4A1X 1B1A 1B2A 6A1X 2B1B 2B2B 
    *   6   -0.161049  ( 9565, 7825)  1A1X 2A1X 3A1X 4A1X 1B1B 1B2B 6A1X 2B1A 2B2A 
    *   7    0.161048  ( 7824, 9564)  1A1X 2A1X 3A1X 4A1X 5A1X 1B1A 1B2A 2B1B 2B2B 
    *   8    0.161048  ( 9564, 7824)  1A1X 2A1X 3A1X 4A1X 5A1X 1B1B 1B2B 2B1A 2B2A 
    *   9   -0.161048  (  120, 1752)  1A1X 2A1X 3A1X 4A1X 5A1X 1B1A 1B2B 2B1A 2B2B 
    *  10   -0.161048  ( 1752,  120)  1A1X 2A1X 3A1X 4A1X 5A1X 1B1B 1B2A 2B1B 2B2A 
    *  11    0.161048  ( 8076, 9312)  1A1X 2A1X 3A1X 4A1X 5A1X 1B1B 1B2A 2B1A 2B2B 
    *  12    0.161048  ( 9312, 8076)  1A1X 2A1X 3A1X 4A1X 5A1X 1B1A 1B2B 2B1B 2B2A 
    *  13   -0.160967  ( 7824, 8077)  1A1X 2A1X 3A1X 4A1X 5A1A 1B1A 1B2X 6A1B 2B1B 
    *  14   -0.160967  ( 8077, 7824)  1A1X 2A1X 3A1X 4A1X 5A1B 1B1B 1B2X 6A1A 2B1A 
    *  15    0.160967  ( 7824, 9313)  1A1X 2A1X 3A1X 4A1X 5A1A 1B1X 1B2A 6A1B 2B2B 
    *  16    0.160967  ( 9313, 7824)  1A1X 2A1X 3A1X 4A1X 5A1B 1B1X 1B2B 6A1A 2B2A 
    *  17    0.160967  (23840,24050)  1A1X 2A1X 3A1X 4A1X 5A1A 1B1B 1B2X 6A1A 2B1B 
    *  18    0.160967  (24050,23840)  1A1X 2A1X 3A1X 4A1X 5A1B 1B1A 1B2X 6A1B 2B1A 
    *  19   -0.160967  (15856,17536)  1A1X 2A1X 3A1X 4A1X 5A1A 1B1X 1B2B 6A1A 2B2B 
    *  20   -0.160967  (17536,15856)  1A1X 2A1X 3A1X 4A1X 5A1B 1B1X 1B2A 6A1B 2B2A 

		 "A good bug is a dead bug" 

			 - Starship Troopers

		 "I didn't write FORTRAN.  That's the problem."

			 - Edward Valeev

    Psi4 stopped on: Friday, 12 July 2019 08:57AM
    Psi4 wall time for execution: 1 day, 19:21:40.85

*** Psi4 exiting successfully. Buy a developer a beer!
