
    -----------------------------------------------------------------------
          Psi4: An Open-Source Ab Initio Electronic Structure Package
                               Psi4 1.3.2 release

                         Git: Rev {HEAD} ecbda83 


    R. M. Parrish, L. A. Burns, D. G. A. Smith, A. C. Simmonett,
    A. E. DePrince III, E. G. Hohenstein, U. Bozkaya, A. Yu. Sokolov,
    R. Di Remigio, R. M. Richard, J. F. Gonthier, A. M. James,
    H. R. McAlexander, A. Kumar, M. Saitow, X. Wang, B. P. Pritchard,
    P. Verma, H. F. Schaefer III, K. Patkowski, R. A. King, E. F. Valeev,
    F. A. Evangelista, J. M. Turney, T. D. Crawford, and C. D. Sherrill,
    J. Chem. Theory Comput. 13(7) pp 3185--3197 (2017).
    (doi: 10.1021/acs.jctc.7b00174)


                         Additional Contributions by
    P. Kraus, H. Kruse, M. H. Lechner, M. C. Schieber, R. A. Shaw,
    A. Alenaizan, R. Galvelis, Z. L. Glick, S. Lehtola, and J. P. Misiewicz

    -----------------------------------------------------------------------


    Psi4 started on: Tuesday, 09 July 2019 08:11AM

    Process ID: 55102
    Host:       comp0002
    PSIDATADIR: /home/maho/psi4conda/share/psi4
    Memory:     500.0 MiB
    Threads:    1
    
  ==> Input File <==

--------------------------------------------------------------------------
#! 6-31G N2 FullCI PES

molecule n2 {
N          R    0.0  0.0
N          0.0  0.0  0.0
}

set {
  basis 6-31g
  guess core
}

Rvals=[0.5, 0.6, 0.7, 0.8, 0.9, 1.0, 1.1, 1.2, 1.3, 1.4, 1.5, 1.6, 2.0, 3.0, 4.0, 5.0, 6.0]

set_num_threads(16)

for R in Rvals:
   n2.R = R
   hfene=energy('hf')
   fciene=energy('fci')
   print ('%f %f %f' % ( R, hfene, fciene) )
   clean()  --------------------------------------------------------------------------
Molecule: geometry: Molecule is not complete, please use 'update_geometry'
                    once all variables are set.
  Threads set to 16 by Python driver.

Molecule: Setting a variable updates the molecular geometry, for
          cartesian molecules this can lead to surprising behaviour.
          Freezing COM and orientation to prevent this.

Molecule: Setting geometry variable R to 0.500000

*** tstart() called on comp0002
*** at Tue Jul  9 08:11:31 2019

   => Loading Basis Set <=

    Name: 6-31G
    Role: ORBITAL
    Keyword: BASIS
    atoms 1-2 entry N          line   102 file /home/maho/psi4conda/share/psi4/basis/6-31g.gbs 


         ---------------------------------------------------------
                                   SCF
               by Justin Turney, Rob Parrish, Andy Simmonett
                          and Daniel G. A. Smith
                              RHF Reference
                       16 Threads,    500 MiB Core
         ---------------------------------------------------------

  ==> Geometry <==

    Molecular point group: c2v
    Full point group: C_inf_v

    Geometry (in Angstrom), charge = 0, multiplicity = 1:

       Center              X                  Y                   Z               Mass       
    ------------   -----------------  -----------------  -----------------  -----------------
         N            0.500000000000     0.000000000000     0.000000000000    14.003074004430
         N            0.000000000000     0.000000000000     0.000000000000    14.003074004430

  Running in c2v symmetry.

  Rotational constants: A = ************  B =      4.81541  C =      4.81541 [cm^-1]
  Rotational constants: A = ************  B = 144362.30464  C = 144362.30464 [MHz]
  Nuclear repulsion =   51.859366645660003

  Charge       = 0
  Multiplicity = 1
  Electrons    = 14
  Nalpha       = 7
  Nbeta        = 7

  ==> Algorithm <==

  SCF Algorithm Type is DF.
  DIIS enabled.
  MOM disabled.
  Fractional occupation disabled.
  Guess Type is CORE.
  Energy threshold   = 1.00e-06
  Density threshold  = 1.00e-06
  Integral threshold = 0.00e+00

  ==> Primary Basis <==

  Basis Set: 6-31G
    Blend: 6-31G
    Number of shells: 10
    Number of basis function: 18
    Number of Cartesian functions: 18
    Spherical Harmonics?: false
    Max angular momentum: 1

   => Loading Basis Set <=

    Name: (6-31G AUX)
    Role: JKFIT
    Keyword: DF_BASIS_SCF
    atoms 1-2 entry N          line   171 file /home/maho/psi4conda/share/psi4/basis/cc-pvdz-jkfit.gbs 

  ==> Pre-Iterations <==

   -------------------------------------------------------
    Irrep   Nso     Nmo     Nalpha   Nbeta   Ndocc  Nsocc
   -------------------------------------------------------
     A1        10      10       0       0       0       0
     A2         0       0       0       0       0       0
     B1         4       4       0       0       0       0
     B2         4       4       0       0       0       0
   -------------------------------------------------------
    Total      18      18       7       7       7       0
   -------------------------------------------------------

  ==> Integral Setup <==

  DFHelper Memory: AOs need 0.001 GiB; user supplied 0.366 GiB. Using in-core AOs.

  ==> MemDFJK: Density-Fitted J/K Matrices <==

    J tasked:                   Yes
    K tasked:                   Yes
    wK tasked:                   No
    OpenMP threads:              16
    Memory [MiB]:               375
    Algorithm:                 Core
    Schwarz Cutoff:           1E-12
    Mask sparsity (%):       0.0000
    Fitting Condition:        1E-10

   => Auxiliary Basis Set <=

  Basis Set: (6-31G AUX)
    Blend: CC-PVDZ-JKFIT
    Number of shells: 48
    Number of basis function: 162
    Number of Cartesian functions: 162
    Spherical Harmonics?: false
    Max angular momentum: 3

  Minimum eigenvalue in the overlap matrix is 8.6499037986E-05.
  Using Symmetric Orthogonalization.

  SCF Guess: Core (One-Electron) Hamiltonian.

  ==> Iterations <==

                           Total Energy        Delta E     RMS |[F,P]|

   @DF-RHF iter   1:   -99.83609386997188   -9.98361e+01   2.82739e-01 DIIS
   @DF-RHF iter   2:  -102.88957645332329   -3.05348e+00   3.13086e-02 DIIS
   @DF-RHF iter   3:  -102.95046583662942   -6.08894e-02   6.47380e-03 DIIS
   @DF-RHF iter   4:  -102.95286028177949   -2.39445e-03   1.01608e-03 DIIS
   @DF-RHF iter   5:  -102.95295936977965   -9.90880e-05   7.23570e-05 DIIS
   @DF-RHF iter   6:  -102.95296001136208   -6.41582e-07   1.21666e-05 DIIS
   @DF-RHF iter   7:  -102.95296002959435   -1.82323e-08   1.21370e-06 DIIS
   @DF-RHF iter   8:  -102.95296002976892   -1.74566e-10   9.15388e-08 DIIS
  Energy and wave function converged.


  ==> Post-Iterations <==

    Orbital Energies [Eh]
    ---------------------

    Doubly Occupied:                                                      

       1A1   -16.528397     2A1   -15.835366     3A1    -1.471182  
       1B1    -1.190891     1B2    -1.190891     4A1    -0.544169  
       5A1    -0.522554  

    Virtual:                                                              

       2B1     0.526577     2B2     0.526577     3B2     0.567627  
       3B1     0.567627     6A1     0.664595     7A1     0.709841  
       8A1     1.005831     9A1     1.507031     4B1     1.639737  
       4B2     1.639737    10A1     9.841642  

    Final Occupation by Irrep:
             A1    A2    B1    B2 
    DOCC [     5,    0,    1,    1 ]

  @DF-RHF Final Energy:  -102.95296002976892

   => Energetics <=

    Nuclear Repulsion Energy =             51.8593666456600033
    One-Electron Energy =                -235.0577566416688171
    Two-Electron Energy =                  80.2454299662398967
    Total Energy =                       -102.9529600297689171

Computation Completed


Properties will be evaluated at   0.000000,   0.000000,   0.000000 [a0]

Properties computed using the SCF density matrix

  Nuclear Dipole Moment: [e a0]
     X:     6.6140      Y:     0.0000      Z:     0.0000

  Electronic Dipole Moment: [e a0]
     X:    -6.6140      Y:     0.0000      Z:     0.0000

  Dipole Moment: [e a0]
     X:    -0.0000      Y:     0.0000      Z:     0.0000     Total:     0.0000

  Dipole Moment: [D]
     X:    -0.0000      Y:     0.0000      Z:     0.0000     Total:     0.0000


*** tstop() called on comp0002 at Tue Jul  9 08:11:32 2019
Module time:
	user time   =       6.12 seconds =       0.10 minutes
	system time =       0.33 seconds =       0.01 minutes
	total time  =          1 seconds =       0.02 minutes
Total time:
	user time   =       6.12 seconds =       0.10 minutes
	system time =       0.33 seconds =       0.01 minutes
	total time  =          1 seconds =       0.02 minutes

*** tstart() called on comp0002
*** at Tue Jul  9 08:11:32 2019

   => Loading Basis Set <=

    Name: 6-31G
    Role: ORBITAL
    Keyword: BASIS
    atoms 1-2 entry N          line   102 file /home/maho/psi4conda/share/psi4/basis/6-31g.gbs 


         ---------------------------------------------------------
                                   SCF
               by Justin Turney, Rob Parrish, Andy Simmonett
                          and Daniel G. A. Smith
                              RHF Reference
                       16 Threads,    500 MiB Core
         ---------------------------------------------------------

  ==> Geometry <==

    Molecular point group: c2v
    Full point group: C_inf_v

    Geometry (in Angstrom), charge = 0, multiplicity = 1:

       Center              X                  Y                   Z               Mass       
    ------------   -----------------  -----------------  -----------------  -----------------
         N            0.500000000000     0.000000000000     0.000000000000    14.003074004430
         N            0.000000000000     0.000000000000     0.000000000000    14.003074004430

  Running in c2v symmetry.

  Rotational constants: A = ************  B =      4.81541  C =      4.81541 [cm^-1]
  Rotational constants: A = ************  B = 144362.30464  C = 144362.30464 [MHz]
  Nuclear repulsion =   51.859366645660003

  Charge       = 0
  Multiplicity = 1
  Electrons    = 14
  Nalpha       = 7
  Nbeta        = 7

  ==> Algorithm <==

  SCF Algorithm Type is PK.
  DIIS enabled.
  MOM disabled.
  Fractional occupation disabled.
  Guess Type is CORE.
  Energy threshold   = 1.00e-08
  Density threshold  = 1.00e-08
  Integral threshold = 0.00e+00

  ==> Primary Basis <==

  Basis Set: 6-31G
    Blend: 6-31G
    Number of shells: 10
    Number of basis function: 18
    Number of Cartesian functions: 18
    Spherical Harmonics?: false
    Max angular momentum: 1

  ==> Pre-Iterations <==

   -------------------------------------------------------
    Irrep   Nso     Nmo     Nalpha   Nbeta   Ndocc  Nsocc
   -------------------------------------------------------
     A1        10      10       0       0       0       0
     A2         0       0       0       0       0       0
     B1         4       4       0       0       0       0
     B2         4       4       0       0       0       0
   -------------------------------------------------------
    Total      18      18       7       7       7       0
   -------------------------------------------------------

  ==> Integral Setup <==

  Using in-core PK algorithm.
   Calculation information:
      Number of atoms:                   2
      Number of AO shells:              10
      Number of primitives:             28
      Number of atomic orbitals:        18
      Number of basis functions:        18

      Integral cutoff                 1.00e-12
      Number of threads:                16

  Performing in-core PK
  Using 29412 doubles for integral storage.
  We computed 5373 shell quartets total.
  Whereas there are 1540 unique shell quartets.
   248.90 percent of shell quartets recomputed by reordering.

  ==> DiskJK: Disk-Based J/K Matrices <==

    J tasked:                  Yes
    K tasked:                  Yes
    wK tasked:                  No
    Memory [MiB]:              375
    Schwarz Cutoff:          1E-12

    OpenMP threads:             16

  Minimum eigenvalue in the overlap matrix is 8.6499037986E-05.
  Using Symmetric Orthogonalization.

  SCF Guess: Core (One-Electron) Hamiltonian.

  ==> Iterations <==

                        Total Energy        Delta E     RMS |[F,P]|

   @RHF iter   1:   -99.83653033466516   -9.98365e+01   2.82746e-01 DIIS
   @RHF iter   2:  -102.88988299197860   -3.05335e+00   3.13009e-02 DIIS
   @RHF iter   3:  -102.95074596762780   -6.08630e-02   6.47188e-03 DIIS
   @RHF iter   4:  -102.95313917111199   -2.39320e-03   1.01586e-03 DIIS
   @RHF iter   5:  -102.95323821239525   -9.90413e-05   7.23313e-05 DIIS
   @RHF iter   6:  -102.95323885348861   -6.41093e-07   1.21597e-05 DIIS
   @RHF iter   7:  -102.95323887169977   -1.82112e-08   1.21311e-06 DIIS
   @RHF iter   8:  -102.95323887187399   -1.74225e-10   9.15412e-08 DIIS
   @RHF iter   9:  -102.95323887187472   -7.24754e-13   8.02149e-09 DIIS
  Energy and wave function converged.


  ==> Post-Iterations <==

    Orbital Energies [Eh]
    ---------------------

    Doubly Occupied:                                                      

       1A1   -16.528361     2A1   -15.835299     3A1    -1.471148  
       1B1    -1.190962     1B2    -1.190962     4A1    -0.544148  
       5A1    -0.522555  

    Virtual:                                                              

       2B2     0.526561     2B1     0.526561     3B2     0.567577  
       3B1     0.567577     6A1     0.664618     7A1     0.709839  
       8A1     1.005832     9A1     1.507046     4B2     1.639676  
       4B1     1.639676    10A1     9.841678  

    Final Occupation by Irrep:
             A1    A2    B1    B2 
    DOCC [     5,    0,    1,    1 ]

  @RHF Final Energy:  -102.95323887187472

   => Energetics <=

    Nuclear Repulsion Energy =             51.8593666456600033
    One-Electron Energy =                -235.0583399428784048
    Two-Electron Energy =                  80.2457344253436844
    Total Energy =                       -102.9532388718747171

Computation Completed


Properties will be evaluated at   0.000000,   0.000000,   0.000000 [a0]

Properties computed using the SCF density matrix

  Nuclear Dipole Moment: [e a0]
     X:     6.6140      Y:     0.0000      Z:     0.0000

  Electronic Dipole Moment: [e a0]
     X:    -6.6140      Y:     0.0000      Z:     0.0000

  Dipole Moment: [e a0]
     X:     0.0000      Y:     0.0000      Z:     0.0000     Total:     0.0000

  Dipole Moment: [D]
     X:     0.0000      Y:     0.0000      Z:     0.0000     Total:     0.0000


*** tstop() called on comp0002 at Tue Jul  9 08:11:32 2019
Module time:
	user time   =       5.56 seconds =       0.09 minutes
	system time =       0.33 seconds =       0.01 minutes
	total time  =          0 seconds =       0.00 minutes
Total time:
	user time   =      11.91 seconds =       0.20 minutes
	system time =       0.66 seconds =       0.01 minutes
	total time  =          1 seconds =       0.02 minutes
 MINTS: Wrapper to libmints.
   by Justin Turney

   Calculation information:
      Number of threads:                16
      Number of atoms:                   2
      Number of AO shells:              10
      Number of SO shells:              10
      Number of primitives:             28
      Number of atomic orbitals:        18
      Number of basis functions:        18

      Number of irreps:                  4
      Integral cutoff                 0.00e+00
      Number of functions per irrep: [  10    0    4    4 ]

 OEINTS: Overlap, kinetic, potential, dipole, and quadrupole integrals
         stored in file 35.

      Computing two-electron integrals...done
      Computed 4350 non-zero two-electron integrals.
        Stored in file 33.


         ---------------------------------------------------------
                          Configuration Interaction
                            (a 'D E T C I' module)

                 C. David Sherrill, Daniel G. A. Smith, and
                              Matt L. Leininger
         ---------------------------------------------------------


   ==> Parameters <==

    EX LEVEL       =       14      H0 BLOCKSIZE  =     1000
    VAL EX LEVEL   =        0      H0 GUESS SIZE =     1000
    H0COUPLINGSIZE =        0      H0 COUPLING   =       NO
    MAXITER        =       24      NUM PRINT     =       20
    NUM ROOTS      =        1      ICORE         =        1
    PRINT LVL      =        1      FCI           =      YES
    R CONV         = 1.00e-04      MIXED         =      YES
    E CONV         = 1.00e-06      MIXED4        =      YES
    R4S            =       NO      REPL OTF      =       NO
    DIAG METHOD    =      SEM      FOLLOW ROOT   =        0
    PRECONDITIONER = DAVIDSON      UPDATE        = DAVIDSON
    S              =   0.0000      Ms0           =      YES
    GUESS VECTOR   =  H0BLOCK      OPENTYPE      =     NONE
    COLLAPSE SIZE  =        1      HD AVG        = EVANGELISTI
    MAX NUM VECS   =       25      REF SYM       =     AUTO
    IOPEN        =       NO

    EX ALLOW       =  1  1  1  1  1  1  1  1  1  1  1  1  1  1 
    STATE AVERAGE  =  0(1.00) 

   ==> CI Orbital and Space information <==

   ------------------------------------------------------
               Space    Total    A1    A2    B1    B2
   ------------------------------------------------------
                 Nso       18    10     0     4     4
                 Nmo       18    10     0     4     4
               Ndocc        7     5     0     1     1
               Nsocc        0     0     0     0     0
   ------------------------------------------------------
                       CI Spaces
   ------------------------------------------------------
        Dropped DOCC        0     0     0     0     0
              Active       18    10     0     4     4
        Dropped UOCC        0     0     0     0     0
   ------------------------------------------------------

   ==> Setting up CI strings <==

    There are 31824 alpha and 31824 beta strings
    The CI space requires 253216512 (2.53E+08) determinants and 4 blocks

   ==> Transforming CI integrals <==

	Presorting SO-basis two-electron integrals.
	Sorting File: SO Ints (nn|nn) nbuckets = 1
	Transforming the one-electron integrals and constructing Fock matrices
	Starting first half-transformation.
	Sorting half-transformed integrals.
	First half integral transformation complete.
	Starting second half-transformation.
	Two-electron integral transformation complete.

   ==> Starting CI iterations <==

    H0 Block Eigenvalue = -102.99965145

    Simultaneous Expansion Method (Block Davidson Method)
    Using 1 initial trial vectors

     Iter   Root       Total Energy       Delta E      C RMS

   @CI  0:     0   -102.999651450084   -1.5486E+02   6.3262E-01  
   @CI  1:     0   -103.056200122985   -5.6549E-02   1.1952E-01  
   @CI  2:     0   -103.057864530530   -1.6644E-03   2.7706E-02  
   @CI  3:     0   -103.057949964710   -8.5434E-05   8.9920E-03  
   @CI  4:     0   -103.057958647490   -8.6828E-06   2.4638E-03  
   @CI  5:     0   -103.057959320059   -6.7257E-07   7.1300E-04  
   @CI  6:     0   -103.057959370554   -5.0495E-08   2.0970E-04  
   @CI  7:     0   -103.057959374773   -4.2188E-09   6.5843E-05 c

   ==> Energetics <==

    SCF energy =         -102.953238871874717
    Total CI energy =    -103.057959374772992

   ==> FCI root 0 information <==

    FCI Root 0 energy =  -103.057959374772992

   The 20 most important determinants:

    *   1    0.984059  ( 7824, 7824)  1A1X 2A1X 3A1X 4A1X 5A1X 1B1X 1B2X 
    *   2   -0.032749  ( 7830, 7830)  1A1X 2A1X 3A1X 4A1X 1B1X 1B2X 7A1X 
    *   3   -0.032175  (17537,17537)  1A1X 2A1X 3A1X 5A1X 1B1X 1B2X 2B2X 
    *   4   -0.032175  (24051,24051)  1A1X 2A1X 3A1X 5A1X 1B1X 1B2X 2B1X 
    *   5   -0.030510  (12808,12808)  1A1X 2A1X 3A1X 4A1X 5A1X 1B1X 4B2X 
    *   6   -0.030510  ( 8700, 8700)  1A1X 2A1X 3A1X 4A1X 5A1X 1B2X 4B1X 
    *   7    0.025042  ( 7826, 7830)  1A1X 2A1X 3A1X 4A1B 5A1A 1B1X 1B2X 6A1A 7A1B 
    *   8    0.025042  ( 7830, 7826)  1A1X 2A1X 3A1X 4A1A 5A1B 1B1X 1B2X 6A1B 7A1A 
    *   9   -0.022948  ( 7826, 7826)  1A1X 2A1X 3A1X 5A1X 1B1X 1B2X 6A1X 
    *  10    0.021736  ( 8700,12808)  1A1X 2A1X 3A1X 4A1X 5A1X 1B1B 1B2A 4B1A 4B2B 
    *  11    0.021736  (12808, 8700)  1A1X 2A1X 3A1X 4A1X 5A1X 1B1A 1B2B 4B1B 4B2A 
    *  12    0.018758  ( 7830, 7881)  1A1X 2A1X 3A1X 4A1A 5A1B 1B1X 1B2X 7A1A 9A1B 
    *  13    0.018758  ( 7881, 7830)  1A1X 2A1X 3A1X 4A1B 5A1A 1B1X 1B2X 7A1B 9A1A 
    *  14   -0.018342  ( 8076, 8700)  1A1X 2A1X 3A1X 4A1X 5A1X 1B2X 2B1A 4B1B 
    *  15   -0.018342  ( 8700, 8076)  1A1X 2A1X 3A1X 4A1X 5A1X 1B2X 2B1B 4B1A 
    *  16   -0.018342  ( 9312,12808)  1A1X 2A1X 3A1X 4A1X 5A1X 1B1X 2B2A 4B2B 
    *  17   -0.018342  (12808, 9312)  1A1X 2A1X 3A1X 4A1X 5A1X 1B1X 2B2B 4B2A 
    *  18   -0.017610  ( 7831, 7831)  1A1X 2A1X 3A1X 5A1X 1B1X 1B2X 7A1X 
    *  19   -0.016573  ( 7824,13684)  1A1X 2A1X 3A1X 4A1X 5A1X 1B1A 1B2A 4B1B 4B2B 
    *  20   -0.016573  (13684, 7824)  1A1X 2A1X 3A1X 4A1X 5A1X 1B1B 1B2B 4B1A 4B2A 

		 "A good bug is a dead bug" 

			 - Starship Troopers

		 "I didn't write FORTRAN.  That's the problem."

			 - Edward Valeev
Molecule: Setting geometry variable R to 0.600000

*** tstart() called on comp0002
*** at Tue Jul  9 08:54:45 2019

   => Loading Basis Set <=

    Name: 6-31G
    Role: ORBITAL
    Keyword: BASIS
    atoms 1-2 entry N          line   102 file /home/maho/psi4conda/share/psi4/basis/6-31g.gbs 


         ---------------------------------------------------------
                                   SCF
               by Justin Turney, Rob Parrish, Andy Simmonett
                          and Daniel G. A. Smith
                              RHF Reference
                       16 Threads,    500 MiB Core
         ---------------------------------------------------------

  ==> Geometry <==

    Molecular point group: c2v
    Full point group: C_inf_v

    Geometry (in Angstrom), charge = 0, multiplicity = 1:

       Center              X                  Y                   Z               Mass       
    ------------   -----------------  -----------------  -----------------  -----------------
         N            0.600000000000     0.000000000000     0.000000000000    14.003074004430
         N            0.000000000000     0.000000000000     0.000000000000    14.003074004430

  Running in c2v symmetry.

  Rotational constants: A = ************  B =      3.34403  C =      3.34403 [cm^-1]
  Rotational constants: A = ************  B = 100251.60045  C = 100251.60045 [MHz]
  Nuclear repulsion =   43.216138871383336

  Charge       = 0
  Multiplicity = 1
  Electrons    = 14
  Nalpha       = 7
  Nbeta        = 7

  ==> Algorithm <==

  SCF Algorithm Type is DF.
  DIIS enabled.
  MOM disabled.
  Fractional occupation disabled.
  Guess Type is CORE.
  Energy threshold   = 1.00e-06
  Density threshold  = 1.00e-06
  Integral threshold = 0.00e+00

  ==> Primary Basis <==

  Basis Set: 6-31G
    Blend: 6-31G
    Number of shells: 10
    Number of basis function: 18
    Number of Cartesian functions: 18
    Spherical Harmonics?: false
    Max angular momentum: 1

   => Loading Basis Set <=

    Name: (6-31G AUX)
    Role: JKFIT
    Keyword: DF_BASIS_SCF
    atoms 1-2 entry N          line   171 file /home/maho/psi4conda/share/psi4/basis/cc-pvdz-jkfit.gbs 

  ==> Pre-Iterations <==

   -------------------------------------------------------
    Irrep   Nso     Nmo     Nalpha   Nbeta   Ndocc  Nsocc
   -------------------------------------------------------
     A1        10      10       0       0       0       0
     A2         0       0       0       0       0       0
     B1         4       4       0       0       0       0
     B2         4       4       0       0       0       0
   -------------------------------------------------------
    Total      18      18       7       7       7       0
   -------------------------------------------------------

  ==> Integral Setup <==

  DFHelper Memory: AOs need 0.001 GiB; user supplied 0.366 GiB. Using in-core AOs.

  ==> MemDFJK: Density-Fitted J/K Matrices <==

    J tasked:                   Yes
    K tasked:                   Yes
    wK tasked:                   No
    OpenMP threads:              16
    Memory [MiB]:               375
    Algorithm:                 Core
    Schwarz Cutoff:           1E-12
    Mask sparsity (%):       0.0000
    Fitting Condition:        1E-10

   => Auxiliary Basis Set <=

  Basis Set: (6-31G AUX)
    Blend: CC-PVDZ-JKFIT
    Number of shells: 48
    Number of basis function: 162
    Number of Cartesian functions: 162
    Spherical Harmonics?: false
    Max angular momentum: 3

  Minimum eigenvalue in the overlap matrix is 2.5300433423E-04.
  Using Symmetric Orthogonalization.

  SCF Guess: Core (One-Electron) Hamiltonian.

  ==> Iterations <==

                           Total Energy        Delta E     RMS |[F,P]|

    Occupation by irrep:
             A1    A2    B1    B2 
    DOCC [     5,    0,    1,    1 ]

   @DF-RHF iter   1:  -101.54811849638421   -1.01548e+02   1.55584e-01 DIIS
   @DF-RHF iter   2:  -105.50738019296941   -3.95926e+00   7.51630e-02 DIIS
   @DF-RHF iter   3:  -105.91892066795340   -4.11540e-01   1.08687e-02 DIIS
   @DF-RHF iter   4:  -105.93262617679828   -1.37055e-02   1.90108e-03 DIIS
   @DF-RHF iter   5:  -105.93303353239028   -4.07356e-04   1.87222e-04 DIIS
   @DF-RHF iter   6:  -105.93303802842982   -4.49604e-06   2.20906e-05 DIIS
   @DF-RHF iter   7:  -105.93303808791343   -5.94836e-08   2.29389e-06 DIIS
   @DF-RHF iter   8:  -105.93303808829062   -3.77185e-10   1.21933e-07 DIIS
  Energy and wave function converged.


  ==> Post-Iterations <==

    Orbital Energies [Eh]
    ---------------------

    Doubly Occupied:                                                      

       1A1   -15.954914     2A1   -15.700426     3A1    -1.630563  
       1B2    -1.014954     1B1    -1.014954     4A1    -0.623039  
       5A1    -0.576589  

    Virtual:                                                              

       2B2     0.473668     2B1     0.473668     3B2     0.623633  
       3B1     0.623633     6A1     0.662711     7A1     0.698566  
       8A1     1.017597     4B2     1.440401     4B1     1.440401  
       9A1     1.500241    10A1     5.995199  

    Final Occupation by Irrep:
             A1    A2    B1    B2 
    DOCC [     5,    0,    1,    1 ]

  @DF-RHF Final Energy:  -105.93303808829062

   => Energetics <=

    Nuclear Repulsion Energy =             43.2161388713833361
    One-Electron Energy =                -225.2674740339418236
    Two-Electron Energy =                  76.1182970742678577
    Total Energy =                       -105.9330380882906155

Computation Completed


Properties will be evaluated at   0.000000,   0.000000,   0.000000 [a0]

Properties computed using the SCF density matrix

  Nuclear Dipole Moment: [e a0]
     X:     7.9368      Y:     0.0000      Z:     0.0000

  Electronic Dipole Moment: [e a0]
     X:    -7.9368      Y:     0.0000      Z:     0.0000

  Dipole Moment: [e a0]
     X:    -0.0000      Y:     0.0000      Z:     0.0000     Total:     0.0000

  Dipole Moment: [D]
     X:    -0.0000      Y:     0.0000      Z:     0.0000     Total:     0.0000


*** tstop() called on comp0002 at Tue Jul  9 08:54:45 2019
Module time:
	user time   =       5.10 seconds =       0.09 minutes
	system time =       0.25 seconds =       0.00 minutes
	total time  =          0 seconds =       0.00 minutes
Total time:
	user time   =    2689.65 seconds =      44.83 minutes
	system time =     274.73 seconds =       4.58 minutes
	total time  =       2594 seconds =      43.23 minutes

*** tstart() called on comp0002
*** at Tue Jul  9 08:54:45 2019

   => Loading Basis Set <=

    Name: 6-31G
    Role: ORBITAL
    Keyword: BASIS
    atoms 1-2 entry N          line   102 file /home/maho/psi4conda/share/psi4/basis/6-31g.gbs 


         ---------------------------------------------------------
                                   SCF
               by Justin Turney, Rob Parrish, Andy Simmonett
                          and Daniel G. A. Smith
                              RHF Reference
                       16 Threads,    500 MiB Core
         ---------------------------------------------------------

  ==> Geometry <==

    Molecular point group: c2v
    Full point group: C_inf_v

    Geometry (in Angstrom), charge = 0, multiplicity = 1:

       Center              X                  Y                   Z               Mass       
    ------------   -----------------  -----------------  -----------------  -----------------
         N            0.600000000000     0.000000000000     0.000000000000    14.003074004430
         N            0.000000000000     0.000000000000     0.000000000000    14.003074004430

  Running in c2v symmetry.

  Rotational constants: A = ************  B =      3.34403  C =      3.34403 [cm^-1]
  Rotational constants: A = ************  B = 100251.60045  C = 100251.60045 [MHz]
  Nuclear repulsion =   43.216138871383336

  Charge       = 0
  Multiplicity = 1
  Electrons    = 14
  Nalpha       = 7
  Nbeta        = 7

  ==> Algorithm <==

  SCF Algorithm Type is PK.
  DIIS enabled.
  MOM disabled.
  Fractional occupation disabled.
  Guess Type is CORE.
  Energy threshold   = 1.00e-08
  Density threshold  = 1.00e-08
  Integral threshold = 0.00e+00

  ==> Primary Basis <==

  Basis Set: 6-31G
    Blend: 6-31G
    Number of shells: 10
    Number of basis function: 18
    Number of Cartesian functions: 18
    Spherical Harmonics?: false
    Max angular momentum: 1

  ==> Pre-Iterations <==

   -------------------------------------------------------
    Irrep   Nso     Nmo     Nalpha   Nbeta   Ndocc  Nsocc
   -------------------------------------------------------
     A1        10      10       0       0       0       0
     A2         0       0       0       0       0       0
     B1         4       4       0       0       0       0
     B2         4       4       0       0       0       0
   -------------------------------------------------------
    Total      18      18       7       7       7       0
   -------------------------------------------------------

  ==> Integral Setup <==

  Using in-core PK algorithm.
   Calculation information:
      Number of atoms:                   2
      Number of AO shells:              10
      Number of primitives:             28
      Number of atomic orbitals:        18
      Number of basis functions:        18

      Integral cutoff                 1.00e-12
      Number of threads:                16

  Performing in-core PK
  Using 29412 doubles for integral storage.
  We computed 5373 shell quartets total.
  Whereas there are 1540 unique shell quartets.
   248.90 percent of shell quartets recomputed by reordering.

  ==> DiskJK: Disk-Based J/K Matrices <==

    J tasked:                  Yes
    K tasked:                  Yes
    wK tasked:                  No
    Memory [MiB]:              375
    Schwarz Cutoff:          1E-12

    OpenMP threads:             16

  Minimum eigenvalue in the overlap matrix is 2.5300433423E-04.
  Using Symmetric Orthogonalization.

  SCF Guess: Core (One-Electron) Hamiltonian.

  ==> Iterations <==

                        Total Energy        Delta E     RMS |[F,P]|

    Occupation by irrep:
             A1    A2    B1    B2 
    DOCC [     5,    0,    1,    1 ]

   @RHF iter   1:  -101.54818112847124   -1.01548e+02   1.55572e-01 DIIS
   @RHF iter   2:  -105.50773553031266   -3.95955e+00   7.51500e-02 DIIS
   @RHF iter   3:  -105.91916867928859   -4.11433e-01   1.08671e-02 DIIS
   @RHF iter   4:  -105.93287111899059   -1.37024e-02   1.90096e-03 DIIS
   @RHF iter   5:  -105.93327834532737   -4.07226e-04   1.87114e-04 DIIS
   @RHF iter   6:  -105.93328283620835   -4.49088e-06   2.20976e-05 DIIS
   @RHF iter   7:  -105.93328289574796   -5.95396e-08   2.29615e-06 DIIS
   @RHF iter   8:  -105.93328289612589   -3.77923e-10   1.22101e-07 DIIS
   @RHF iter   9:  -105.93328289612698   -1.09424e-12   1.00638e-08 DIIS
   @RHF iter  10:  -105.93328289612688    9.94760e-14   1.11448e-09 DIIS
  Energy and wave function converged.


  ==> Post-Iterations <==

    Orbital Energies [Eh]
    ---------------------

    Doubly Occupied:                                                      

       1A1   -15.954847     2A1   -15.700344     3A1    -1.630522  
       1B2    -1.015004     1B1    -1.015004     4A1    -0.623051  
       5A1    -0.576562  

    Virtual:                                                              

       2B1     0.473655     2B2     0.473655     3B2     0.623581  
       3B1     0.623581     6A1     0.662733     7A1     0.698557  
       8A1     1.017605     4B1     1.440369     4B2     1.440369  
       9A1     1.500260    10A1     5.995192  

    Final Occupation by Irrep:
             A1    A2    B1    B2 
    DOCC [     5,    0,    1,    1 ]

  @RHF Final Energy:  -105.93328289612688

   => Energetics <=

    Nuclear Repulsion Energy =             43.2161388713833361
    One-Electron Energy =                -225.2681773437658990
    Two-Electron Energy =                  76.1187555762556656
    Total Energy =                       -105.9332828961268831

Computation Completed


Properties will be evaluated at   0.000000,   0.000000,   0.000000 [a0]

Properties computed using the SCF density matrix

  Nuclear Dipole Moment: [e a0]
     X:     7.9368      Y:     0.0000      Z:     0.0000

  Electronic Dipole Moment: [e a0]
     X:    -7.9368      Y:     0.0000      Z:     0.0000

  Dipole Moment: [e a0]
     X:    -0.0000      Y:     0.0000      Z:     0.0000     Total:     0.0000

  Dipole Moment: [D]
     X:    -0.0000      Y:     0.0000      Z:     0.0000     Total:     0.0000


*** tstop() called on comp0002 at Tue Jul  9 08:54:46 2019
Module time:
	user time   =       5.14 seconds =       0.09 minutes
	system time =       0.30 seconds =       0.01 minutes
	total time  =          1 seconds =       0.02 minutes
Total time:
	user time   =    2694.92 seconds =      44.92 minutes
	system time =     275.03 seconds =       4.58 minutes
	total time  =       2595 seconds =      43.25 minutes
 MINTS: Wrapper to libmints.
   by Justin Turney

   Calculation information:
      Number of threads:                16
      Number of atoms:                   2
      Number of AO shells:              10
      Number of SO shells:              10
      Number of primitives:             28
      Number of atomic orbitals:        18
      Number of basis functions:        18

      Number of irreps:                  4
      Integral cutoff                 0.00e+00
      Number of functions per irrep: [  10    0    4    4 ]

 OEINTS: Overlap, kinetic, potential, dipole, and quadrupole integrals
         stored in file 35.

      Computing two-electron integrals...done
      Computed 4350 non-zero two-electron integrals.
        Stored in file 33.


         ---------------------------------------------------------
                          Configuration Interaction
                            (a 'D E T C I' module)

                 C. David Sherrill, Daniel G. A. Smith, and
                              Matt L. Leininger
         ---------------------------------------------------------


   ==> Parameters <==

    EX LEVEL       =       14      H0 BLOCKSIZE  =     1000
    VAL EX LEVEL   =        0      H0 GUESS SIZE =     1000
    H0COUPLINGSIZE =        0      H0 COUPLING   =       NO
    MAXITER        =       24      NUM PRINT     =       20
    NUM ROOTS      =        1      ICORE         =        1
    PRINT LVL      =        1      FCI           =      YES
    R CONV         = 1.00e-04      MIXED         =      YES
    E CONV         = 1.00e-06      MIXED4        =      YES
    R4S            =       NO      REPL OTF      =       NO
    DIAG METHOD    =      SEM      FOLLOW ROOT   =        0
    PRECONDITIONER = DAVIDSON      UPDATE        = DAVIDSON
    S              =   0.0000      Ms0           =      YES
    GUESS VECTOR   =  H0BLOCK      OPENTYPE      =     NONE
    COLLAPSE SIZE  =        1      HD AVG        = EVANGELISTI
    MAX NUM VECS   =       25      REF SYM       =     AUTO
    IOPEN        =       NO

    EX ALLOW       =  1  1  1  1  1  1  1  1  1  1  1  1  1  1 
    STATE AVERAGE  =  0(1.00) 

   ==> CI Orbital and Space information <==

   ------------------------------------------------------
               Space    Total    A1    A2    B1    B2
   ------------------------------------------------------
                 Nso       18    10     0     4     4
                 Nmo       18    10     0     4     4
               Ndocc        7     5     0     1     1
               Nsocc        0     0     0     0     0
   ------------------------------------------------------
                       CI Spaces
   ------------------------------------------------------
        Dropped DOCC        0     0     0     0     0
              Active       18    10     0     4     4
        Dropped UOCC        0     0     0     0     0
   ------------------------------------------------------

   ==> Setting up CI strings <==

    There are 31824 alpha and 31824 beta strings
    The CI space requires 253216512 (2.53E+08) determinants and 4 blocks

   ==> Transforming CI integrals <==

	Presorting SO-basis two-electron integrals.
	Sorting File: SO Ints (nn|nn) nbuckets = 1
	Transforming the one-electron integrals and constructing Fock matrices
	Starting first half-transformation.
	Sorting half-transformed integrals.
	First half integral transformation complete.
	Starting second half-transformation.
	Two-electron integral transformation complete.

   ==> Starting CI iterations <==

    H0 Block Eigenvalue = -106.00352105

    Simultaneous Expansion Method (Block Davidson Method)
    Using 1 initial trial vectors

     Iter   Root       Total Energy       Delta E      C RMS

   @CI  0:     0   -106.003521050421   -1.4922E+02   5.9147E-01  
   @CI  1:     0   -106.055740274953   -5.2219E-02   1.1764E-01  
   @CI  2:     0   -106.057471236184   -1.7310E-03   2.7714E-02  
   @CI  3:     0   -106.057570976828   -9.9741E-05   7.9524E-03  
   @CI  4:     0   -106.057578289121   -7.3123E-06   2.3182E-03  
   @CI  5:     0   -106.057578872498   -5.8338E-07   6.8920E-04  
   @CI  6:     0   -106.057578922858   -5.0359E-08   2.0240E-04  
   @CI  7:     0   -106.057578927324   -4.4668E-09   6.0156E-05 c

   ==> Energetics <==

    SCF energy =         -105.933282896126883
    Total CI energy =    -106.057578927324428

   ==> FCI root 0 information <==

    FCI Root 0 energy =  -106.057578927324428

   The 20 most important determinants:

    *   1   -0.981415  ( 7824, 7824)  1A1X 2A1X 3A1X 4A1X 5A1X 1B1X 1B2X 
    *   2    0.036029  (24050,24050)  1A1X 2A1X 3A1X 4A1X 1B1X 1B2X 2B1X 
    *   3    0.036029  (17536,17536)  1A1X 2A1X 3A1X 4A1X 1B1X 1B2X 2B2X 
    *   4    0.031768  (12808,12808)  1A1X 2A1X 3A1X 4A1X 5A1X 1B1X 4B2X 
    *   5    0.031768  ( 8700, 8700)  1A1X 2A1X 3A1X 4A1X 5A1X 1B2X 4B1X 
    *   6    0.024212  ( 8076, 8700)  1A1X 2A1X 3A1X 4A1X 5A1X 1B2X 2B1A 4B1B 
    *   7    0.024212  ( 8700, 8076)  1A1X 2A1X 3A1X 4A1X 5A1X 1B2X 2B1B 4B1A 
    *   8    0.024212  ( 9312,12808)  1A1X 2A1X 3A1X 4A1X 5A1X 1B1X 2B2A 4B2B 
    *   9    0.024212  (12808, 9312)  1A1X 2A1X 3A1X 4A1X 5A1X 1B1X 2B2B 4B2A 
    *  10    0.023083  ( 8076, 8076)  1A1X 2A1X 3A1X 4A1X 5A1X 1B2X 2B1X 
    *  11    0.023083  ( 9312, 9312)  1A1X 2A1X 3A1X 4A1X 5A1X 1B1X 2B2X 
    *  12   -0.022421  ( 8700,12808)  1A1X 2A1X 3A1X 4A1X 5A1X 1B1B 1B2A 4B1A 4B2B 
    *  13   -0.022421  (12808, 8700)  1A1X 2A1X 3A1X 4A1X 5A1X 1B1A 1B2B 4B1B 4B2A 
    *  14    0.020989  ( 7846, 7846)  1A1X 2A1X 3A1X 5A1X 1B1X 1B2X 8A1X 
    *  15    0.020687  ( 7825, 7825)  1A1X 2A1X 3A1X 4A1X 1B1X 1B2X 6A1X 
    *  16    0.019340  ( 7845, 7845)  1A1X 2A1X 3A1X 4A1X 1B1X 1B2X 8A1X 
    *  17    0.019109  ( 7831, 7831)  1A1X 2A1X 3A1X 5A1X 1B1X 1B2X 7A1X 
    *  18   -0.018515  ( 7825, 7831)  1A1X 2A1X 3A1X 4A1A 5A1B 1B1X 1B2X 6A1A 7A1B 
    *  19   -0.018515  ( 7831, 7825)  1A1X 2A1X 3A1X 4A1B 5A1A 1B1X 1B2X 6A1B 7A1A 
    *  20    0.017577  ( 7846, 7880)  1A1X 2A1X 3A1X 4A1B 5A1A 1B1X 1B2X 8A1A 9A1B 

		 "A good bug is a dead bug" 

			 - Starship Troopers

		 "I didn't write FORTRAN.  That's the problem."

			 - Edward Valeev
Molecule: Setting geometry variable R to 0.700000

*** tstart() called on comp0002
*** at Tue Jul  9 09:38:43 2019

   => Loading Basis Set <=

    Name: 6-31G
    Role: ORBITAL
    Keyword: BASIS
    atoms 1-2 entry N          line   102 file /home/maho/psi4conda/share/psi4/basis/6-31g.gbs 


         ---------------------------------------------------------
                                   SCF
               by Justin Turney, Rob Parrish, Andy Simmonett
                          and Daniel G. A. Smith
                              RHF Reference
                       16 Threads,    500 MiB Core
         ---------------------------------------------------------

  ==> Geometry <==

    Molecular point group: c2v
    Full point group: C_inf_v

    Geometry (in Angstrom), charge = 0, multiplicity = 1:

       Center              X                  Y                   Z               Mass       
    ------------   -----------------  -----------------  -----------------  -----------------
         N            0.700000000000     0.000000000000     0.000000000000    14.003074004430
         N            0.000000000000     0.000000000000     0.000000000000    14.003074004430

  Running in c2v symmetry.

  Rotational constants: A = ************  B =      2.45684  C =      2.45684 [cm^-1]
  Rotational constants: A = ************  B =  73654.23706  C =  73654.23706 [MHz]
  Nuclear repulsion =   37.042404746900004

  Charge       = 0
  Multiplicity = 1
  Electrons    = 14
  Nalpha       = 7
  Nbeta        = 7

  ==> Algorithm <==

  SCF Algorithm Type is DF.
  DIIS enabled.
  MOM disabled.
  Fractional occupation disabled.
  Guess Type is CORE.
  Energy threshold   = 1.00e-06
  Density threshold  = 1.00e-06
  Integral threshold = 0.00e+00

  ==> Primary Basis <==

  Basis Set: 6-31G
    Blend: 6-31G
    Number of shells: 10
    Number of basis function: 18
    Number of Cartesian functions: 18
    Spherical Harmonics?: false
    Max angular momentum: 1

   => Loading Basis Set <=

    Name: (6-31G AUX)
    Role: JKFIT
    Keyword: DF_BASIS_SCF
    atoms 1-2 entry N          line   171 file /home/maho/psi4conda/share/psi4/basis/cc-pvdz-jkfit.gbs 

  ==> Pre-Iterations <==

   -------------------------------------------------------
    Irrep   Nso     Nmo     Nalpha   Nbeta   Ndocc  Nsocc
   -------------------------------------------------------
     A1        10      10       0       0       0       0
     A2         0       0       0       0       0       0
     B1         4       4       0       0       0       0
     B2         4       4       0       0       0       0
   -------------------------------------------------------
    Total      18      18       7       7       7       0
   -------------------------------------------------------

  ==> Integral Setup <==

  DFHelper Memory: AOs need 0.001 GiB; user supplied 0.366 GiB. Using in-core AOs.

  ==> MemDFJK: Density-Fitted J/K Matrices <==

    J tasked:                   Yes
    K tasked:                   Yes
    wK tasked:                   No
    OpenMP threads:              16
    Memory [MiB]:               375
    Algorithm:                 Core
    Schwarz Cutoff:           1E-12
    Mask sparsity (%):       0.0000
    Fitting Condition:        1E-10

   => Auxiliary Basis Set <=

  Basis Set: (6-31G AUX)
    Blend: CC-PVDZ-JKFIT
    Number of shells: 48
    Number of basis function: 162
    Number of Cartesian functions: 162
    Spherical Harmonics?: false
    Max angular momentum: 3

  Minimum eigenvalue in the overlap matrix is 6.2220957802E-04.
  Using Symmetric Orthogonalization.

  SCF Guess: Core (One-Electron) Hamiltonian.

  ==> Iterations <==

                           Total Energy        Delta E     RMS |[F,P]|

    Occupation by irrep:
             A1    A2    B1    B2 
    DOCC [     5,    0,    1,    1 ]

   @DF-RHF iter   1:  -101.32044553681436   -1.01320e+02   1.69964e-01 DIIS
   @DF-RHF iter   2:  -106.11032213603237   -4.78988e+00   1.32969e-01 DIIS
   @DF-RHF iter   3:  -107.41291758683488   -1.30260e+00   2.85709e-02 DIIS
   @DF-RHF iter   4:  -107.49301300283236   -8.00954e-02   4.60073e-03 DIIS
   @DF-RHF iter   5:  -107.49554368739933   -2.53068e-03   4.97181e-04 DIIS
   @DF-RHF iter   6:  -107.49556781771530   -2.41303e-05   4.85357e-05 DIIS
   @DF-RHF iter   7:  -107.49556800210051   -1.84385e-07   3.47250e-06 DIIS
   @DF-RHF iter   8:  -107.49556800299897   -8.98453e-10   3.07029e-07 DIIS
  Energy and wave function converged.


  ==> Post-Iterations <==

    Orbital Energies [Eh]
    ---------------------

    Doubly Occupied:                                                      

       1A1   -15.741506     2A1   -15.647973     3A1    -1.715622  
       1B1    -0.891263     1B2    -0.891263     4A1    -0.640754  
       5A1    -0.619277  

    Virtual:                                                              

       2B1     0.409099     2B2     0.409099     6A1     0.657594  
       3B2     0.678770     3B1     0.678770     7A1     0.699455  
       8A1     1.008302     4B2     1.284371     4B1     1.284371  
       9A1     1.470511    10A1     3.965568  

    Final Occupation by Irrep:
             A1    A2    B1    B2 
    DOCC [     5,    0,    1,    1 ]

  @DF-RHF Final Energy:  -107.49556800299897

   => Energetics <=

    Nuclear Repulsion Energy =             37.0424047469000044
    One-Electron Energy =                -216.7806382915719610
    Two-Electron Energy =                  72.2426655416730057
    Total Energy =                       -107.4955680029989651

Computation Completed


Properties will be evaluated at   0.000000,   0.000000,   0.000000 [a0]

Properties computed using the SCF density matrix

  Nuclear Dipole Moment: [e a0]
     X:     9.2597      Y:     0.0000      Z:     0.0000

  Electronic Dipole Moment: [e a0]
     X:    -9.2597      Y:     0.0000      Z:     0.0000

  Dipole Moment: [e a0]
     X:     0.0000      Y:     0.0000      Z:     0.0000     Total:     0.0000

  Dipole Moment: [D]
     X:     0.0000      Y:     0.0000      Z:     0.0000     Total:     0.0000


*** tstop() called on comp0002 at Tue Jul  9 09:38:43 2019
Module time:
	user time   =       5.69 seconds =       0.09 minutes
	system time =       0.24 seconds =       0.00 minutes
	total time  =          0 seconds =       0.00 minutes
Total time:
	user time   =    5391.89 seconds =      89.86 minutes
	system time =     571.37 seconds =       9.52 minutes
	total time  =       5232 seconds =      87.20 minutes

*** tstart() called on comp0002
*** at Tue Jul  9 09:38:43 2019

   => Loading Basis Set <=

    Name: 6-31G
    Role: ORBITAL
    Keyword: BASIS
    atoms 1-2 entry N          line   102 file /home/maho/psi4conda/share/psi4/basis/6-31g.gbs 


         ---------------------------------------------------------
                                   SCF
               by Justin Turney, Rob Parrish, Andy Simmonett
                          and Daniel G. A. Smith
                              RHF Reference
                       16 Threads,    500 MiB Core
         ---------------------------------------------------------

  ==> Geometry <==

    Molecular point group: c2v
    Full point group: C_inf_v

    Geometry (in Angstrom), charge = 0, multiplicity = 1:

       Center              X                  Y                   Z               Mass       
    ------------   -----------------  -----------------  -----------------  -----------------
         N            0.700000000000     0.000000000000     0.000000000000    14.003074004430
         N            0.000000000000     0.000000000000     0.000000000000    14.003074004430

  Running in c2v symmetry.

  Rotational constants: A = ************  B =      2.45684  C =      2.45684 [cm^-1]
  Rotational constants: A = ************  B =  73654.23706  C =  73654.23706 [MHz]
  Nuclear repulsion =   37.042404746900004

  Charge       = 0
  Multiplicity = 1
  Electrons    = 14
  Nalpha       = 7
  Nbeta        = 7

  ==> Algorithm <==

  SCF Algorithm Type is PK.
  DIIS enabled.
  MOM disabled.
  Fractional occupation disabled.
  Guess Type is CORE.
  Energy threshold   = 1.00e-08
  Density threshold  = 1.00e-08
  Integral threshold = 0.00e+00

  ==> Primary Basis <==

  Basis Set: 6-31G
    Blend: 6-31G
    Number of shells: 10
    Number of basis function: 18
    Number of Cartesian functions: 18
    Spherical Harmonics?: false
    Max angular momentum: 1

  ==> Pre-Iterations <==

   -------------------------------------------------------
    Irrep   Nso     Nmo     Nalpha   Nbeta   Ndocc  Nsocc
   -------------------------------------------------------
     A1        10      10       0       0       0       0
     A2         0       0       0       0       0       0
     B1         4       4       0       0       0       0
     B2         4       4       0       0       0       0
   -------------------------------------------------------
    Total      18      18       7       7       7       0
   -------------------------------------------------------

  ==> Integral Setup <==

  Using in-core PK algorithm.
   Calculation information:
      Number of atoms:                   2
      Number of AO shells:              10
      Number of primitives:             28
      Number of atomic orbitals:        18
      Number of basis functions:        18

      Integral cutoff                 1.00e-12
      Number of threads:                16

  Performing in-core PK
  Using 29412 doubles for integral storage.
  We computed 5373 shell quartets total.
  Whereas there are 1540 unique shell quartets.
   248.90 percent of shell quartets recomputed by reordering.

  ==> DiskJK: Disk-Based J/K Matrices <==

    J tasked:                  Yes
    K tasked:                  Yes
    wK tasked:                  No
    Memory [MiB]:              375
    Schwarz Cutoff:          1E-12

    OpenMP threads:             16

  Minimum eigenvalue in the overlap matrix is 6.2220957802E-04.
  Using Symmetric Orthogonalization.

  SCF Guess: Core (One-Electron) Hamiltonian.

  ==> Iterations <==

                        Total Energy        Delta E     RMS |[F,P]|

    Occupation by irrep:
             A1    A2    B1    B2 
    DOCC [     5,    0,    1,    1 ]

   @RHF iter   1:  -101.32175299999950   -1.01322e+02   1.69934e-01 DIIS
   @RHF iter   2:  -106.11053284588306   -4.78878e+00   1.32962e-01 DIIS
   @RHF iter   3:  -107.41309918796105   -1.30257e+00   2.85746e-02 DIIS
   @RHF iter   4:  -107.49321595066729   -8.01168e-02   4.60027e-03 DIIS
   @RHF iter   5:  -107.49574579440662   -2.52984e-03   4.96995e-04 DIIS
   @RHF iter   6:  -107.49576990282438   -2.41084e-05   4.85352e-05 DIIS
   @RHF iter   7:  -107.49577008723159   -1.84407e-07   3.47060e-06 DIIS
   @RHF iter   8:  -107.49577008812882   -8.97231e-10   3.07155e-07 DIIS
   @RHF iter   9:  -107.49577008813691   -8.08598e-12   2.88638e-08 DIIS
   @RHF iter  10:  -107.49577008813709   -1.84741e-13   8.54607e-10 DIIS
  Energy and wave function converged.


  ==> Post-Iterations <==

    Orbital Energies [Eh]
    ---------------------

    Doubly Occupied:                                                      

       1A1   -15.741432     2A1   -15.647893     3A1    -1.715589  
       1B2    -0.891295     1B1    -0.891295     4A1    -0.640763  
       5A1    -0.619251  

    Virtual:                                                              

       2B1     0.409095     2B2     0.409095     6A1     0.657618  
       3B1     0.678712     3B2     0.678712     7A1     0.699435  
       8A1     1.008317     4B1     1.284345     4B2     1.284345  
       9A1     1.470531    10A1     3.965537  

    Final Occupation by Irrep:
             A1    A2    B1    B2 
    DOCC [     5,    0,    1,    1 ]

  @RHF Final Energy:  -107.49577008813709

   => Energetics <=

    Nuclear Repulsion Energy =             37.0424047469000044
    One-Electron Energy =                -216.7813142409405884
    Two-Electron Energy =                  72.2431394059034773
    Total Energy =                       -107.4957700881370926

Computation Completed


Properties will be evaluated at   0.000000,   0.000000,   0.000000 [a0]

Properties computed using the SCF density matrix

  Nuclear Dipole Moment: [e a0]
     X:     9.2597      Y:     0.0000      Z:     0.0000

  Electronic Dipole Moment: [e a0]
     X:    -9.2597      Y:     0.0000      Z:     0.0000

  Dipole Moment: [e a0]
     X:     0.0000      Y:     0.0000      Z:     0.0000     Total:     0.0000

  Dipole Moment: [D]
     X:     0.0000      Y:     0.0000      Z:     0.0000     Total:     0.0000


*** tstop() called on comp0002 at Tue Jul  9 09:38:44 2019
Module time:
	user time   =       5.35 seconds =       0.09 minutes
	system time =       0.33 seconds =       0.01 minutes
	total time  =          1 seconds =       0.02 minutes
Total time:
	user time   =    5397.41 seconds =      89.96 minutes
	system time =     571.71 seconds =       9.53 minutes
	total time  =       5233 seconds =      87.22 minutes
 MINTS: Wrapper to libmints.
   by Justin Turney

   Calculation information:
      Number of threads:                16
      Number of atoms:                   2
      Number of AO shells:              10
      Number of SO shells:              10
      Number of primitives:             28
      Number of atomic orbitals:        18
      Number of basis functions:        18

      Number of irreps:                  4
      Integral cutoff                 0.00e+00
      Number of functions per irrep: [  10    0    4    4 ]

 OEINTS: Overlap, kinetic, potential, dipole, and quadrupole integrals
         stored in file 35.

      Computing two-electron integrals...done
      Computed 4350 non-zero two-electron integrals.
        Stored in file 33.


         ---------------------------------------------------------
                          Configuration Interaction
                            (a 'D E T C I' module)

                 C. David Sherrill, Daniel G. A. Smith, and
                              Matt L. Leininger
         ---------------------------------------------------------


   ==> Parameters <==

    EX LEVEL       =       14      H0 BLOCKSIZE  =     1000
    VAL EX LEVEL   =        0      H0 GUESS SIZE =     1000
    H0COUPLINGSIZE =        0      H0 COUPLING   =       NO
    MAXITER        =       24      NUM PRINT     =       20
    NUM ROOTS      =        1      ICORE         =        1
    PRINT LVL      =        1      FCI           =      YES
    R CONV         = 1.00e-04      MIXED         =      YES
    E CONV         = 1.00e-06      MIXED4        =      YES
    R4S            =       NO      REPL OTF      =       NO
    DIAG METHOD    =      SEM      FOLLOW ROOT   =        0
    PRECONDITIONER = DAVIDSON      UPDATE        = DAVIDSON
    S              =   0.0000      Ms0           =      YES
    GUESS VECTOR   =  H0BLOCK      OPENTYPE      =     NONE
    COLLAPSE SIZE  =        1      HD AVG        = EVANGELISTI
    MAX NUM VECS   =       25      REF SYM       =     AUTO
    IOPEN        =       NO

    EX ALLOW       =  1  1  1  1  1  1  1  1  1  1  1  1  1  1 
    STATE AVERAGE  =  0(1.00) 

   ==> CI Orbital and Space information <==

   ------------------------------------------------------
               Space    Total    A1    A2    B1    B2
   ------------------------------------------------------
                 Nso       18    10     0     4     4
                 Nmo       18    10     0     4     4
               Ndocc        7     5     0     1     1
               Nsocc        0     0     0     0     0
   ------------------------------------------------------
                       CI Spaces
   ------------------------------------------------------
        Dropped DOCC        0     0     0     0     0
              Active       18    10     0     4     4
        Dropped UOCC        0     0     0     0     0
   ------------------------------------------------------

   ==> Setting up CI strings <==

    There are 31824 alpha and 31824 beta strings
    The CI space requires 253216512 (2.53E+08) determinants and 4 blocks

   ==> Transforming CI integrals <==

	Presorting SO-basis two-electron integrals.
	Sorting File: SO Ints (nn|nn) nbuckets = 1
	Transforming the one-electron integrals and constructing Fock matrices
	Starting first half-transformation.
	Sorting half-transformed integrals.
	First half integral transformation complete.
	Starting second half-transformation.
	Two-electron integral transformation complete.

   ==> Starting CI iterations <==

    H0 Block Eigenvalue = -107.58966744

    Simultaneous Expansion Method (Block Davidson Method)
    Using 1 initial trial vectors

     Iter   Root       Total Energy       Delta E      C RMS

   @CI  0:     0   -107.589667439522   -1.4463E+02   5.7034E-01  
   @CI  1:     0   -107.641260263398   -5.1593E-02   1.1848E-01  
   @CI  2:     0   -107.643109714746   -1.8495E-03   2.9663E-02  
   @CI  3:     0   -107.643235869536   -1.2615E-04   8.6869E-03  
   @CI  4:     0   -107.643247182666   -1.1313E-05   3.0373E-03  
   @CI  5:     0   -107.643248647559   -1.4649E-06   1.1195E-03  
   @CI  6:     0   -107.643248816123   -1.6856E-07   3.6458E-04  
