
    -----------------------------------------------------------------------
          Psi4: An Open-Source Ab Initio Electronic Structure Package
                               Psi4 1.2 release

                         Git: Rev {HEAD} 9d4a61c 


    R. M. Parrish, L. A. Burns, D. G. A. Smith, A. C. Simmonett,
    A. E. DePrince III, E. G. Hohenstein, U. Bozkaya, A. Yu. Sokolov,
    R. Di Remigio, R. M. Richard, J. F. Gonthier, A. M. James,
    H. R. McAlexander, A. Kumar, M. Saitow, X. Wang, B. P. Pritchard,
    P. Verma, H. F. Schaefer III, K. Patkowski, R. A. King, E. F. Valeev,
    F. A. Evangelista, J. M. Turney, T. D. Crawford, and C. D. Sherrill,
    J. Chem. Theory Comput. 13(7) pp 3185--3197 (2017).
    (doi: 10.1021/acs.jctc.7b00174)


                         Additional Contributions by
    P. Kraus, H. Kruse, M. H. Lechner, M. C. Schieber, and R. A. Shaw

    -----------------------------------------------------------------------


    Psi4 started on: Tuesday, 09 July 2019 11:33AM

    Process ID: 110528
    Host:       comp0002
    PSIDATADIR: /usr/local/psi4/share/psi4
    Memory:     500.0 MiB
    Threads:    16
    
  ==> Input File <==

--------------------------------------------------------------------------
#! 6-31G N2 FullCI PES

molecule n2 {
N          R    0.0  0.0
N          0.0  0.0  0.0
}

set {
  basis 6-31g
  guess core
}

Rvals=[0.5, 0.6, 0.7, 0.8, 0.9, 1.0, 1.1, 1.2, 1.3, 1.4, 1.5, 1.6, 2.0, 3.0, 4.0, 5.0, 6.0, 100]

set_num_threads(16)

for R in Rvals:
   n2.R = R
   hfene=energy('hf')
   fciene=energy('fci')
   print ('%f %f %f' % ( R, hfene, fciene) )
   clean()  
--------------------------------------------------------------------------
Molecule: geometry: Molecule is not complete, please use 'update_geometry'
                    once all variables are set.
  Threads set to 16 by Python driver.

Molecule: Setting a variable updates the molecular geometry, for
          cartesian molecules this can lead to surprising behaviour.
          Freezing COM and orientation to prevent this.

Molecule: Setting geometry variable R to 0.500000

*** tstart() called on comp0002
*** at Tue Jul  9 11:33:30 2019

   => Loading Basis Set <=

    Name: 6-31G
    Role: ORBITAL
    Keyword: BASIS
    atoms 1-2 entry N          line   102 file /usr/local/psi4/share/psi4/basis/6-31g.gbs 

    There are an even number of electrons - assuming singlet.
    Specify the multiplicity in the molecule input block.


         ---------------------------------------------------------
                                   SCF
            by Justin Turney, Rob Parrish, Andy Simmonett
                             and Daniel Smith
                              RHF Reference
                       16 Threads,    500 MiB Core
         ---------------------------------------------------------

  ==> Geometry <==

    Molecular point group: c2v
    Full point group: C_inf_v

    Geometry (in Angstrom), charge = 0, multiplicity = 1:

       Center              X                  Y                   Z               Mass       
    ------------   -----------------  -----------------  -----------------  -----------------
         N            0.500000000000     0.000000000000     0.000000000000    14.003074004780
         N            0.000000000000     0.000000000000     0.000000000000    14.003074004780

  Running in c2v symmetry.

  Rotational constants: A = ************  B =      4.81541  C =      4.81541 [cm^-1]
  Rotational constants: A = ************  B = 144362.30354  C = 144362.30354 [MHz]
  Nuclear repulsion =   51.859366441819994

  Charge       = 0
  Multiplicity = 1
  Electrons    = 14
  Nalpha       = 7
  Nbeta        = 7

  ==> Algorithm <==

  SCF Algorithm Type is DF.
  DIIS enabled.
  MOM disabled.
  Fractional occupation disabled.
  Guess Type is CORE.
  Energy threshold   = 1.00e-06
  Density threshold  = 1.00e-06
  Integral threshold = 0.00e+00

  ==> Primary Basis <==

  Basis Set: 6-31G
    Blend: 6-31G
    Number of shells: 10
    Number of basis function: 18
    Number of Cartesian functions: 18
    Spherical Harmonics?: false
    Max angular momentum: 1

   => Loading Basis Set <=

    Name: (6-31G AUX)
    Role: JKFIT
    Keyword: DF_BASIS_SCF
    atoms 1-2 entry N          line   171 file /usr/local/psi4/share/psi4/basis/cc-pvdz-jkfit.gbs 

  ==> Pre-Iterations <==

   -------------------------------------------------------
    Irrep   Nso     Nmo     Nalpha   Nbeta   Ndocc  Nsocc
   -------------------------------------------------------
     A1        10      10       0       0       0       0
     A2         0       0       0       0       0       0
     B1         4       4       0       0       0       0
     B2         4       4       0       0       0       0
   -------------------------------------------------------
    Total      18      18       7       7       7       0
   -------------------------------------------------------

  ==> Integral Setup <==

  ==> DiskDFJK: Density-Fitted J/K Matrices <==

    J tasked:                  Yes
    K tasked:                  Yes
    wK tasked:                  No
    OpenMP threads:             16
    Integrals threads:          16
    Memory (MB):               375
    Algorithm:                Core
    Integral Cache:           NONE
    Schwarz Cutoff:          1E-12
    Fitting Condition:       1E-12

   => Auxiliary Basis Set <=

  Basis Set: (6-31G AUX)
    Blend: CC-PVDZ-JKFIT
    Number of shells: 48
    Number of basis function: 162
    Number of Cartesian functions: 162
    Spherical Harmonics?: false
    Max angular momentum: 3

  Minimum eigenvalue in the overlap matrix is 8.6499039983E-05.
  Using Symmetric Orthogonalization.

  SCF Guess: Core (One-Electron) Hamiltonian.

  ==> Iterations <==

                           Total Energy        Delta E     RMS |[F,P]|

   @DF-RHF iter   1:   -99.83609395576542   -9.98361e+01   2.94099e-01 
   @DF-RHF iter   2:  -102.88957653410436   -3.05348e+00   3.36898e-02 DIIS
   @DF-RHF iter   3:  -102.95046591582373   -6.08894e-02   7.92876e-03 DIIS
   @DF-RHF iter   4:  -102.95286036088702   -2.39445e-03   1.15589e-03 DIIS
   @DF-RHF iter   5:  -102.95295944888160   -9.90880e-05   8.76287e-05 DIIS
   @DF-RHF iter   6:  -102.95296009046410   -6.41583e-07   1.38407e-05 DIIS
   @DF-RHF iter   7:  -102.95296010869632   -1.82322e-08   1.31762e-06 DIIS
   @DF-RHF iter   8:  -102.95296010887088   -1.74566e-10   1.08475e-07 DIIS

  ==> Post-Iterations <==

    Orbital Energies [Eh]
    ---------------------

    Doubly Occupied:                                                      

       1A1   -16.528397     2A1   -15.835366     3A1    -1.471182  
       1B1    -1.190891     1B2    -1.190891     4A1    -0.544169  
       5A1    -0.522554  

    Virtual:                                                              

       2B2     0.526577     2B1     0.526577     3B1     0.567627  
       3B2     0.567627     6A1     0.664595     7A1     0.709841  
       8A1     1.005831     9A1     1.507031     4B2     1.639737  
       4B1     1.639737    10A1     9.841642  

    Final Occupation by Irrep:
             A1    A2    B1    B2 
    DOCC [     5,    0,    1,    1 ]

  Energy converged.

  @DF-RHF Final Energy:  -102.95296010887088

   => Energetics <=

    Nuclear Repulsion Energy =             51.8593664418199936
    One-Electron Energy =                -235.0577564388640326
    Two-Electron Energy =                  80.2454298881731631
    Total Energy =                       -102.9529601088708830



Properties will be evaluated at   0.000000,   0.000000,   0.000000 [a0]

Properties computed using the SCF density matrix

  Nuclear Dipole Moment: [e a0]
     X:     6.6140      Y:     0.0000      Z:     0.0000

  Electronic Dipole Moment: [e a0]
     X:    -6.6140      Y:     0.0000      Z:     0.0000

  Dipole Moment: [e a0]
     X:     0.0000      Y:     0.0000      Z:     0.0000     Total:     0.0000

  Dipole Moment: [D]
     X:     0.0000      Y:     0.0000      Z:     0.0000     Total:     0.0000


*** tstop() called on comp0002 at Tue Jul  9 11:33:32 2019
Module time:
	user time   =       5.61 seconds =       0.09 minutes
	system time =       7.26 seconds =       0.12 minutes
	total time  =          2 seconds =       0.03 minutes
Total time:
	user time   =       5.61 seconds =       0.09 minutes
	system time =       7.26 seconds =       0.12 minutes
	total time  =          2 seconds =       0.03 minutes

*** tstart() called on comp0002
*** at Tue Jul  9 11:33:32 2019

   => Loading Basis Set <=

    Name: 6-31G
    Role: ORBITAL
    Keyword: BASIS
    atoms 1-2 entry N          line   102 file /usr/local/psi4/share/psi4/basis/6-31g.gbs 


         ---------------------------------------------------------
                                   SCF
            by Justin Turney, Rob Parrish, Andy Simmonett
                             and Daniel Smith
                              RHF Reference
                       16 Threads,    500 MiB Core
         ---------------------------------------------------------

  ==> Geometry <==

    Molecular point group: c2v
    Full point group: C_inf_v

    Geometry (in Angstrom), charge = 0, multiplicity = 1:

       Center              X                  Y                   Z               Mass       
    ------------   -----------------  -----------------  -----------------  -----------------
         N            0.500000000000     0.000000000000     0.000000000000    14.003074004780
         N            0.000000000000     0.000000000000     0.000000000000    14.003074004780

  Running in c2v symmetry.

  Rotational constants: A = ************  B =      4.81541  C =      4.81541 [cm^-1]
  Rotational constants: A = ************  B = 144362.30354  C = 144362.30354 [MHz]
  Nuclear repulsion =   51.859366441819994

  Charge       = 0
  Multiplicity = 1
  Electrons    = 14
  Nalpha       = 7
  Nbeta        = 7

  ==> Algorithm <==

  SCF Algorithm Type is PK.
  DIIS enabled.
  MOM disabled.
  Fractional occupation disabled.
  Guess Type is CORE.
  Energy threshold   = 1.00e-08
  Density threshold  = 1.00e-08
  Integral threshold = 0.00e+00

  ==> Primary Basis <==

  Basis Set: 6-31G
    Blend: 6-31G
    Number of shells: 10
    Number of basis function: 18
    Number of Cartesian functions: 18
    Spherical Harmonics?: false
    Max angular momentum: 1

  ==> Pre-Iterations <==

   -------------------------------------------------------
    Irrep   Nso     Nmo     Nalpha   Nbeta   Ndocc  Nsocc
   -------------------------------------------------------
     A1        10      10       0       0       0       0
     A2         0       0       0       0       0       0
     B1         4       4       0       0       0       0
     B2         4       4       0       0       0       0
   -------------------------------------------------------
    Total      18      18       7       7       7       0
   -------------------------------------------------------

  ==> Integral Setup <==

  Using in-core PK algorithm.
   Calculation information:
      Number of atoms:                   2
      Number of AO shells:              10
      Number of primitives:             28
      Number of atomic orbitals:        18
      Number of basis functions:        18

      Integral cutoff                 1.00e-12
      Number of threads:                16

  Performing in-core PK
  Using 29412 doubles for integral storage.
  We computed 5373 shell quartets total.
  Whereas there are 1540 unique shell quartets.
   248.90 percent of shell quartets recomputed by reordering.

  ==> DiskJK: Disk-Based J/K Matrices <==

    J tasked:                  Yes
    K tasked:                  Yes
    wK tasked:                  No
    Memory (MB):               375
    Schwarz Cutoff:          1E-12

    OpenMP threads:             16

  Minimum eigenvalue in the overlap matrix is 8.6499039983E-05.
  Using Symmetric Orthogonalization.

  SCF Guess: Core (One-Electron) Hamiltonian.

  ==> Iterations <==

                        Total Energy        Delta E     RMS |[F,P]|

   @RHF iter   1:   -99.83653042082966   -9.98365e+01   4.12561e-01 
   @RHF iter   2:  -102.88988307288579   -3.05335e+00   7.66712e-02 DIIS
   @RHF iter   3:  -102.95074604700207   -6.08630e-02   1.17568e-02 DIIS
   @RHF iter   4:  -102.95313925040296   -2.39320e-03   1.45891e-03 DIIS
   @RHF iter   5:  -102.95323829168069   -9.90413e-05   1.15242e-04 DIIS
   @RHF iter   6:  -102.95323893277379   -6.41093e-07   2.32840e-05 DIIS
   @RHF iter   7:  -102.95323895098515   -1.82114e-08   2.46383e-06 DIIS
   @RHF iter   8:  -102.95323895115949   -1.74339e-10   1.75288e-07 DIIS
   @RHF iter   9:  -102.95323895116005   -5.54223e-13   1.62917e-08 DIIS
   @RHF iter  10:  -102.95323895116002    2.84217e-14   9.84156e-10 DIIS

  ==> Post-Iterations <==

    Orbital Energies [Eh]
    ---------------------

    Doubly Occupied:                                                      

       1A1   -16.528361     2A1   -15.835299     3A1    -1.471148  
       1B2    -1.190962     1B1    -1.190962     4A1    -0.544148  
       5A1    -0.522555  

    Virtual:                                                              

       2B1     0.526561     2B2     0.526561     3B2     0.567577  
       3B1     0.567577     6A1     0.664618     7A1     0.709839  
       8A1     1.005832     9A1     1.507046     4B1     1.639676  
       4B2     1.639676    10A1     9.841678  

    Final Occupation by Irrep:
             A1    A2    B1    B2 
    DOCC [     5,    0,    1,    1 ]

  Energy converged.

  @RHF Final Energy:  -102.95323895116002

   => Energetics <=

    Nuclear Repulsion Energy =             51.8593664418199936
    One-Electron Energy =                -235.0583397915322337
    Two-Electron Energy =                  80.2457343985522300
    PCM Polarization Energy =               0.0000000000000000
    Total Energy =                       -102.9532389511600172

    Alert: EFP and PCM quantities not currently incorporated into SCF psivars.

Properties will be evaluated at   0.000000,   0.000000,   0.000000 [a0]

Properties computed using the SCF density matrix

  Nuclear Dipole Moment: [e a0]
     X:     6.6140      Y:     0.0000      Z:     0.0000

  Electronic Dipole Moment: [e a0]
     X:    -6.6140      Y:     0.0000      Z:     0.0000

  Dipole Moment: [e a0]
     X:    -0.0000      Y:     0.0000      Z:     0.0000     Total:     0.0000

  Dipole Moment: [D]
     X:    -0.0000      Y:     0.0000      Z:     0.0000     Total:     0.0000


*** tstop() called on comp0002 at Tue Jul  9 11:33:32 2019
Module time:
	user time   =       0.84 seconds =       0.01 minutes
	system time =       0.72 seconds =       0.01 minutes
	total time  =          0 seconds =       0.00 minutes
Total time:
	user time   =       6.52 seconds =       0.11 minutes
	system time =       8.15 seconds =       0.14 minutes
	total time  =          2 seconds =       0.03 minutes
 MINTS: Wrapper to libmints.
   by Justin Turney

   Calculation information:
      Number of threads:                16
      Number of atoms:                   2
      Number of AO shells:              10
      Number of SO shells:              10
      Number of primitives:             28
      Number of atomic orbitals:        18
      Number of basis functions:        18

      Number of irreps:                  4
      Integral cutoff                 0.00e+00
      Number of functions per irrep: [  10    0    4    4 ]

 OEINTS: Overlap, kinetic, potential, dipole, and quadrupole integrals
         stored in file 35.

      Computing two-electron integrals...done
      Computed 4350 non-zero two-electron integrals.
        Stored in file 33.


         ---------------------------------------------------------
                          Configuration Interaction
                            (a 'D E T C I' module)

                 C. David Sherrill, Daniel G. A. Smith, and
                              Matt L. Leininger
         ---------------------------------------------------------


   ==> Parameters <==

    EX LEVEL       =       14      H0 BLOCKSIZE  =     1000
    VAL EX LEVEL   =        0      H0 GUESS SIZE =     1000
    H0COUPLINGSIZE =        0      H0 COUPLING   =       NO
    MAXITER        =       24      NUM PRINT     =       20
    NUM ROOTS      =        1      ICORE         =        1
    PRINT LVL      =        1      FCI           =      YES
    R CONV         = 1.00e-04      MIXED         =      YES
    E CONV         = 1.00e-06      MIXED4        =      YES
    R4S            =       NO      REPL OTF      =       NO
    DIAG METHOD    =      SEM      FOLLOW ROOT   =        0
    PRECONDITIONER = DAVIDSON      UPDATE        = DAVIDSON
    S              =   0.0000      Ms0           =      YES
    GUESS VECTOR   =  H0BLOCK      OPENTYPE      =     NONE
    COLLAPSE SIZE  =        1      HD AVG        = EVANGELISTI
    MAX NUM VECS   =       25      REF SYM       =     AUTO
    IOPEN        =       NO

    EX ALLOW       =  1  1  1  1  1  1  1  1  1  1  1  1  1  1 
    STATE AVERAGE  =  0(1.00) 

   ==> CI Orbital and Space information <==

   ------------------------------------------------------
               Space    Total    A1    A2    B1    B2
   ------------------------------------------------------
                 Nso       18    10     0     4     4
                 Nmo       18    10     0     4     4
               Ndocc        7     5     0     1     1
               Nsocc        0     0     0     0     0
   ------------------------------------------------------
                       CI Spaces
   ------------------------------------------------------
        Dropped DOCC        0     0     0     0     0
              Active       18    10     0     4     4
        Dropped UOCC        0     0     0     0     0
   ------------------------------------------------------

   ==> Setting up CI strings <==

    There are 31824 alpha and 31824 beta strings
    The CI space requires 253216512 (2.53E+08) determinants and 4 blocks

   ==> Transforming CI integrals <==

	Presorting SO-basis two-electron integrals.
	Sorting File: SO Ints (nn|nn) nbuckets = 1
	Transforming the one-electron integrals and constructing Fock matrices
	Starting first half-transformation.
	Sorting half-transformed integrals.
	First half integral transformation complete.
	Starting second half-transformation.
	Two-electron integral transformation complete.

   ==> Starting CI iterations <==

    H0 Block Eigenvalue = -102.99965153

    Simultaneous Expansion Method (Block Davidson Method)
    Using 1 initial trial vectors

     Iter   Root       Total Energy       Delta E      C RMS

   @CI  0:     0   -102.999651529478   -1.5486E+02   6.3262E-01  
   @CI  1:     0   -103.056200202507   -5.6549E-02   1.1952E-01  
   @CI  2:     0   -103.057864610063   -1.6644E-03   2.7706E-02  
   @CI  3:     0   -103.057950044244   -8.5434E-05   8.9920E-03  
   @CI  4:     0   -103.057958727024   -8.6828E-06   2.4638E-03  
   @CI  5:     0   -103.057959399593   -6.7257E-07   7.1300E-04  
   @CI  6:     0   -103.057959450088   -5.0495E-08   2.0970E-04  
   @CI  7:     0   -103.057959454307   -4.2187E-09   6.5843E-05 c

   ==> Energetics <==

    SCF energy =         -102.953238951160017
    Total CI energy =    -103.057959454306683

   ==> FCI root 0 information <==

    FCI Root 0 energy =  -103.057959454306683

   The 20 most important determinants:

    *   1    0.984059  ( 7824, 7824)  1A1X 2A1X 3A1X 4A1X 5A1X 1B1X 1B2X 
    *   2   -0.032749  ( 7830, 7830)  1A1X 2A1X 3A1X 4A1X 1B1X 1B2X 7A1X 
    *   3   -0.032175  (17537,17537)  1A1X 2A1X 3A1X 5A1X 1B1X 1B2X 2B2X 
    *   4   -0.032175  (24051,24051)  1A1X 2A1X 3A1X 5A1X 1B1X 1B2X 2B1X 
    *   5   -0.030510  ( 8700, 8700)  1A1X 2A1X 3A1X 4A1X 5A1X 1B2X 4B1X 
    *   6   -0.030510  (12808,12808)  1A1X 2A1X 3A1X 4A1X 5A1X 1B1X 4B2X 
    *   7    0.025042  ( 7826, 7830)  1A1X 2A1X 3A1X 4A1B 5A1A 1B1X 1B2X 6A1A 7A1B 
    *   8    0.025042  ( 7830, 7826)  1A1X 2A1X 3A1X 4A1A 5A1B 1B1X 1B2X 6A1B 7A1A 
    *   9   -0.022948  ( 7826, 7826)  1A1X 2A1X 3A1X 5A1X 1B1X 1B2X 6A1X 
    *  10    0.021736  ( 8700,12808)  1A1X 2A1X 3A1X 4A1X 5A1X 1B1B 1B2A 4B1A 4B2B 
    *  11    0.021736  (12808, 8700)  1A1X 2A1X 3A1X 4A1X 5A1X 1B1A 1B2B 4B1B 4B2A 
    *  12    0.018758  ( 7830, 7881)  1A1X 2A1X 3A1X 4A1A 5A1B 1B1X 1B2X 7A1A 9A1B 
    *  13    0.018758  ( 7881, 7830)  1A1X 2A1X 3A1X 4A1B 5A1A 1B1X 1B2X 7A1B 9A1A 
    *  14   -0.018342  ( 9312,12808)  1A1X 2A1X 3A1X 4A1X 5A1X 1B1X 2B2A 4B2B 
    *  15   -0.018342  (12808, 9312)  1A1X 2A1X 3A1X 4A1X 5A1X 1B1X 2B2B 4B2A 
    *  16   -0.018342  ( 8076, 8700)  1A1X 2A1X 3A1X 4A1X 5A1X 1B2X 2B1A 4B1B 
    *  17   -0.018342  ( 8700, 8076)  1A1X 2A1X 3A1X 4A1X 5A1X 1B2X 2B1B 4B1A 
    *  18   -0.017610  ( 7831, 7831)  1A1X 2A1X 3A1X 5A1X 1B1X 1B2X 7A1X 
    *  19   -0.016573  ( 7824,13684)  1A1X 2A1X 3A1X 4A1X 5A1X 1B1A 1B2A 4B1B 4B2B 
    *  20   -0.016573  (13684, 7824)  1A1X 2A1X 3A1X 4A1X 5A1X 1B1B 1B2B 4B1A 4B2A 

		 "A good bug is a dead bug" 

			 - Starship Troopers

		 "I didn't write FORTRAN.  That's the problem."

			 - Edward Valeev
Molecule: Setting geometry variable R to 0.600000

*** tstart() called on comp0002
*** at Tue Jul  9 12:24:09 2019

   => Loading Basis Set <=

    Name: 6-31G
    Role: ORBITAL
    Keyword: BASIS
    atoms 1-2 entry N          line   102 file /usr/local/psi4/share/psi4/basis/6-31g.gbs 


         ---------------------------------------------------------
                                   SCF
            by Justin Turney, Rob Parrish, Andy Simmonett
                             and Daniel Smith
                              RHF Reference
                       16 Threads,    500 MiB Core
         ---------------------------------------------------------

  ==> Geometry <==

    Molecular point group: c2v
    Full point group: C_inf_v

    Geometry (in Angstrom), charge = 0, multiplicity = 1:

       Center              X                  Y                   Z               Mass       
    ------------   -----------------  -----------------  -----------------  -----------------
         N            0.600000000000     0.000000000000     0.000000000000    14.003074004780
         N            0.000000000000     0.000000000000     0.000000000000    14.003074004780

  Running in c2v symmetry.

  Rotational constants: A = ************  B =      3.34403  C =      3.34403 [cm^-1]
  Rotational constants: A = ************  B = 100251.59968  C = 100251.59968 [MHz]
  Nuclear repulsion =   43.216138701516670

  Charge       = 0
  Multiplicity = 1
  Electrons    = 14
  Nalpha       = 7
  Nbeta        = 7

  ==> Algorithm <==

  SCF Algorithm Type is DF.
  DIIS enabled.
  MOM disabled.
  Fractional occupation disabled.
  Guess Type is CORE.
  Energy threshold   = 1.00e-06
  Density threshold  = 1.00e-06
  Integral threshold = 0.00e+00

  ==> Primary Basis <==

  Basis Set: 6-31G
    Blend: 6-31G
    Number of shells: 10
    Number of basis function: 18
    Number of Cartesian functions: 18
    Spherical Harmonics?: false
    Max angular momentum: 1

   => Loading Basis Set <=

    Name: (6-31G AUX)
    Role: JKFIT
    Keyword: DF_BASIS_SCF
    atoms 1-2 entry N          line   171 file /usr/local/psi4/share/psi4/basis/cc-pvdz-jkfit.gbs 

  ==> Pre-Iterations <==

   -------------------------------------------------------
    Irrep   Nso     Nmo     Nalpha   Nbeta   Ndocc  Nsocc
   -------------------------------------------------------
     A1        10      10       0       0       0       0
     A2         0       0       0       0       0       0
     B1         4       4       0       0       0       0
     B2         4       4       0       0       0       0
   -------------------------------------------------------
    Total      18      18       7       7       7       0
   -------------------------------------------------------

  ==> Integral Setup <==

  ==> DiskDFJK: Density-Fitted J/K Matrices <==

    J tasked:                  Yes
    K tasked:                  Yes
    wK tasked:                  No
    OpenMP threads:             16
    Integrals threads:          16
    Memory (MB):               375
    Algorithm:                Core
    Integral Cache:           NONE
    Schwarz Cutoff:          1E-12
    Fitting Condition:       1E-12

   => Auxiliary Basis Set <=

  Basis Set: (6-31G AUX)
    Blend: CC-PVDZ-JKFIT
    Number of shells: 48
    Number of basis function: 162
    Number of Cartesian functions: 162
    Spherical Harmonics?: false
    Max angular momentum: 3

  Minimum eigenvalue in the overlap matrix is 2.5300434008E-04.
  Using Symmetric Orthogonalization.

  SCF Guess: Core (One-Electron) Hamiltonian.

  ==> Iterations <==

                           Total Energy        Delta E     RMS |[F,P]|

    Occupation by irrep:
             A1    A2    B1    B2 
    DOCC [     5,    0,    1,    1 ]

   @DF-RHF iter   1:  -101.54811855047593   -1.01548e+02   1.55584e-01 
   @DF-RHF iter   2:  -105.50738025035420   -3.95926e+00   7.51630e-02 DIIS
   @DF-RHF iter   3:  -105.91892071848690   -4.11540e-01   1.08687e-02 DIIS
   @DF-RHF iter   4:  -105.93262622703426   -1.37055e-02   2.06386e-03 DIIS
   @DF-RHF iter   5:  -105.93303358261159   -4.07356e-04   1.87222e-04 DIIS
   @DF-RHF iter   6:  -105.93303807865104   -4.49604e-06   2.20906e-05 DIIS
   @DF-RHF iter   7:  -105.93303813813478   -5.94837e-08   2.29389e-06 DIIS
   @DF-RHF iter   8:  -105.93303813851205   -3.77270e-10   1.23823e-07 DIIS

  ==> Post-Iterations <==

    Orbital Energies [Eh]
    ---------------------

    Doubly Occupied:                                                      

       1A1   -15.954914     2A1   -15.700426     3A1    -1.630563  
       1B2    -1.014954     1B1    -1.014954     4A1    -0.623039  
       5A1    -0.576589  

    Virtual:                                                              

       2B2     0.473668     2B1     0.473668     3B2     0.623633  
       3B1     0.623633     6A1     0.662711     7A1     0.698566  
       8A1     1.017597     4B2     1.440401     4B1     1.440401  
       9A1     1.500241    10A1     5.995199  

    Final Occupation by Irrep:
             A1    A2    B1    B2 
    DOCC [     5,    0,    1,    1 ]

  Energy converged.

  @DF-RHF Final Energy:  -105.93303813851205

   => Energetics <=

    Nuclear Repulsion Energy =             43.2161387015166696
    One-Electron Energy =                -225.2674738170226192
    Two-Electron Energy =                  76.1182969769938893
    Total Energy =                       -105.9330381385120461



Properties will be evaluated at   0.000000,   0.000000,   0.000000 [a0]

Properties computed using the SCF density matrix

  Nuclear Dipole Moment: [e a0]
     X:     7.9368      Y:     0.0000      Z:     0.0000

  Electronic Dipole Moment: [e a0]
     X:    -7.9368      Y:     0.0000      Z:     0.0000

  Dipole Moment: [e a0]
     X:    -0.0000      Y:     0.0000      Z:     0.0000     Total:     0.0000

  Dipole Moment: [D]
     X:    -0.0000      Y:     0.0000      Z:     0.0000     Total:     0.0000


*** tstop() called on comp0002 at Tue Jul  9 12:24:11 2019
Module time:
	user time   =       8.28 seconds =       0.14 minutes
	system time =      12.19 seconds =       0.20 minutes
	total time  =          2 seconds =       0.03 minutes
Total time:
	user time   =    2756.44 seconds =      45.94 minutes
	system time =     308.20 seconds =       5.14 minutes
	total time  =       3041 seconds =      50.68 minutes

*** tstart() called on comp0002
*** at Tue Jul  9 12:24:11 2019

   => Loading Basis Set <=

    Name: 6-31G
    Role: ORBITAL
    Keyword: BASIS
    atoms 1-2 entry N          line   102 file /usr/local/psi4/share/psi4/basis/6-31g.gbs 


         ---------------------------------------------------------
                                   SCF
            by Justin Turney, Rob Parrish, Andy Simmonett
                             and Daniel Smith
                              RHF Reference
                       16 Threads,    500 MiB Core
         ---------------------------------------------------------

  ==> Geometry <==

    Molecular point group: c2v
    Full point group: C_inf_v

    Geometry (in Angstrom), charge = 0, multiplicity = 1:

       Center              X                  Y                   Z               Mass       
    ------------   -----------------  -----------------  -----------------  -----------------
         N            0.600000000000     0.000000000000     0.000000000000    14.003074004780
         N            0.000000000000     0.000000000000     0.000000000000    14.003074004780

  Running in c2v symmetry.

  Rotational constants: A = ************  B =      3.34403  C =      3.34403 [cm^-1]
  Rotational constants: A = ************  B = 100251.59968  C = 100251.59968 [MHz]
  Nuclear repulsion =   43.216138701516670

  Charge       = 0
  Multiplicity = 1
  Electrons    = 14
  Nalpha       = 7
  Nbeta        = 7

  ==> Algorithm <==

  SCF Algorithm Type is PK.
  DIIS enabled.
  MOM disabled.
  Fractional occupation disabled.
  Guess Type is CORE.
  Energy threshold   = 1.00e-08
  Density threshold  = 1.00e-08
  Integral threshold = 0.00e+00

  ==> Primary Basis <==

  Basis Set: 6-31G
    Blend: 6-31G
    Number of shells: 10
    Number of basis function: 18
    Number of Cartesian functions: 18
    Spherical Harmonics?: false
    Max angular momentum: 1

  ==> Pre-Iterations <==

   -------------------------------------------------------
    Irrep   Nso     Nmo     Nalpha   Nbeta   Ndocc  Nsocc
   -------------------------------------------------------
     A1        10      10       0       0       0       0
     A2         0       0       0       0       0       0
     B1         4       4       0       0       0       0
     B2         4       4       0       0       0       0
   -------------------------------------------------------
    Total      18      18       7       7       7       0
   -------------------------------------------------------

  ==> Integral Setup <==

  Using in-core PK algorithm.
   Calculation information:
      Number of atoms:                   2
      Number of AO shells:              10
      Number of primitives:             28
      Number of atomic orbitals:        18
      Number of basis functions:        18

      Integral cutoff                 1.00e-12
      Number of threads:                16

  Performing in-core PK
  Using 29412 doubles for integral storage.
  We computed 5373 shell quartets total.
  Whereas there are 1540 unique shell quartets.
   248.90 percent of shell quartets recomputed by reordering.

  ==> DiskJK: Disk-Based J/K Matrices <==

    J tasked:                  Yes
    K tasked:                  Yes
    wK tasked:                  No
    Memory (MB):               375
    Schwarz Cutoff:          1E-12

    OpenMP threads:             16

  Minimum eigenvalue in the overlap matrix is 2.5300434008E-04.
  Using Symmetric Orthogonalization.

  SCF Guess: Core (One-Electron) Hamiltonian.

  ==> Iterations <==

                        Total Energy        Delta E     RMS |[F,P]|

    Occupation by irrep:
             A1    A2    B1    B2 
    DOCC [     5,    0,    1,    1 ]

   @RHF iter   1:  -101.54818118248727   -1.01548e+02   3.81072e-01 
   @RHF iter   2:  -105.50773558108645   -3.95955e+00   1.15378e-01 DIIS
   @RHF iter   3:  -105.91916872939105   -4.11433e-01   1.88224e-02 DIIS
   @RHF iter   4:  -105.93287116911254   -1.37024e-02   3.45326e-03 DIIS
   @RHF iter   5:  -105.93327839544861   -4.07226e-04   3.04024e-04 DIIS
   @RHF iter   6:  -105.93328288632958   -4.49088e-06   3.52072e-05 DIIS
   @RHF iter   7:  -105.93328294586914   -5.95396e-08   4.39679e-06 DIIS
   @RHF iter   8:  -105.93328294624708   -3.77938e-10   2.16462e-07 DIIS
   @RHF iter   9:  -105.93328294624828   -1.20792e-12   1.54508e-08 DIIS
   @RHF iter  10:  -105.93328294624817    1.13687e-13   1.38074e-09 DIIS

  ==> Post-Iterations <==

    Orbital Energies [Eh]
    ---------------------

    Doubly Occupied:                                                      

       1A1   -15.954847     2A1   -15.700344     3A1    -1.630522  
       1B2    -1.015004     1B1    -1.015004     4A1    -0.623051  
       5A1    -0.576562  

    Virtual:                                                              

       2B1     0.473655     2B2     0.473655     3B2     0.623581  
       3B1     0.623581     6A1     0.662733     7A1     0.698557  
       8A1     1.017605     4B1     1.440369     4B2     1.440369  
       9A1     1.500260    10A1     5.995192  

    Final Occupation by Irrep:
             A1    A2    B1    B2 
    DOCC [     5,    0,    1,    1 ]

  Energy converged.

  @RHF Final Energy:  -105.93328294624817

   => Energetics <=

    Nuclear Repulsion Energy =             43.2161387015166696
    One-Electron Energy =                -225.2681771278318763
    Two-Electron Energy =                  76.1187554800670512
    Total Energy =                       -105.9332829462481698



Properties will be evaluated at   0.000000,   0.000000,   0.000000 [a0]

Properties computed using the SCF density matrix

  Nuclear Dipole Moment: [e a0]
     X:     7.9368      Y:     0.0000      Z:     0.0000

  Electronic Dipole Moment: [e a0]
     X:    -7.9368      Y:     0.0000      Z:     0.0000

  Dipole Moment: [e a0]
     X:    -0.0000      Y:     0.0000      Z:     0.0000     Total:     0.0000

  Dipole Moment: [D]
     X:    -0.0000      Y:     0.0000      Z:     0.0000     Total:     0.0000


*** tstop() called on comp0002 at Tue Jul  9 12:24:12 2019
Module time:
	user time   =       0.75 seconds =       0.01 minutes
	system time =       0.08 seconds =       0.00 minutes
	total time  =          1 seconds =       0.02 minutes
Total time:
	user time   =    2757.20 seconds =      45.95 minutes
	system time =     308.28 seconds =       5.14 minutes
	total time  =       3042 seconds =      50.70 minutes
 MINTS: Wrapper to libmints.
   by Justin Turney

   Calculation information:
      Number of threads:                16
      Number of atoms:                   2
      Number of AO shells:              10
      Number of SO shells:              10
      Number of primitives:             28
      Number of atomic orbitals:        18
      Number of basis functions:        18

      Number of irreps:                  4
      Integral cutoff                 0.00e+00
      Number of functions per irrep: [  10    0    4    4 ]

 OEINTS: Overlap, kinetic, potential, dipole, and quadrupole integrals
         stored in file 35.

      Computing two-electron integrals...done
      Computed 4350 non-zero two-electron integrals.
        Stored in file 33.


         ---------------------------------------------------------
                          Configuration Interaction
                            (a 'D E T C I' module)

                 C. David Sherrill, Daniel G. A. Smith, and
                              Matt L. Leininger
         ---------------------------------------------------------


   ==> Parameters <==

    EX LEVEL       =       14      H0 BLOCKSIZE  =     1000
    VAL EX LEVEL   =        0      H0 GUESS SIZE =     1000
    H0COUPLINGSIZE =        0      H0 COUPLING   =       NO
    MAXITER        =       24      NUM PRINT     =       20
    NUM ROOTS      =        1      ICORE         =        1
    PRINT LVL      =        1      FCI           =      YES
    R CONV         = 1.00e-04      MIXED         =      YES
    E CONV         = 1.00e-06      MIXED4        =      YES
    R4S            =       NO      REPL OTF      =       NO
    DIAG METHOD    =      SEM      FOLLOW ROOT   =        0
    PRECONDITIONER = DAVIDSON      UPDATE        = DAVIDSON
    S              =   0.0000      Ms0           =      YES
    GUESS VECTOR   =  H0BLOCK      OPENTYPE      =     NONE
    COLLAPSE SIZE  =        1      HD AVG        = EVANGELISTI
    MAX NUM VECS   =       25      REF SYM       =     AUTO
    IOPEN        =       NO

    EX ALLOW       =  1  1  1  1  1  1  1  1  1  1  1  1  1  1 
    STATE AVERAGE  =  0(1.00) 

   ==> CI Orbital and Space information <==

   ------------------------------------------------------
               Space    Total    A1    A2    B1    B2
   ------------------------------------------------------
                 Nso       18    10     0     4     4
                 Nmo       18    10     0     4     4
               Ndocc        7     5     0     1     1
               Nsocc        0     0     0     0     0
   ------------------------------------------------------
                       CI Spaces
   ------------------------------------------------------
        Dropped DOCC        0     0     0     0     0
              Active       18    10     0     4     4
        Dropped UOCC        0     0     0     0     0
   ------------------------------------------------------

   ==> Setting up CI strings <==

    There are 31824 alpha and 31824 beta strings
    The CI space requires 253216512 (2.53E+08) determinants and 4 blocks

   ==> Transforming CI integrals <==

	Presorting SO-basis two-electron integrals.
	Sorting File: SO Ints (nn|nn) nbuckets = 1
	Transforming the one-electron integrals and constructing Fock matrices
	Starting first half-transformation.
	Sorting half-transformed integrals.
	First half integral transformation complete.
	Starting second half-transformation.
	Two-electron integral transformation complete.

   ==> Starting CI iterations <==

    H0 Block Eigenvalue = -106.00352110

    Simultaneous Expansion Method (Block Davidson Method)
    Using 1 initial trial vectors

     Iter   Root       Total Energy       Delta E      C RMS

   @CI  0:     0   -106.003521100930   -1.4922E+02   5.9147E-01  
   @CI  1:     0   -106.055740325609   -5.2219E-02   1.1764E-01  
   @CI  2:     0   -106.057471286851   -1.7310E-03   2.7714E-02  
   @CI  3:     0   -106.057571027496   -9.9741E-05   7.9524E-03  
   @CI  4:     0   -106.057578339789   -7.3123E-06   2.3182E-03  
   @CI  5:     0   -106.057578923166   -5.8338E-07   6.8920E-04  
   @CI  6:     0   -106.057578973526   -5.0359E-08   2.0240E-04  
   @CI  7:     0   -106.057578977993   -4.4666E-09   6.0156E-05 c

   ==> Energetics <==

    SCF energy =         -105.933282946248170
    Total CI energy =    -106.057578977992549

   ==> FCI root 0 information <==

    FCI Root 0 energy =  -106.057578977992549

   The 20 most important determinants:

    *   1   -0.981415  ( 7824, 7824)  1A1X 2A1X 3A1X 4A1X 5A1X 1B1X 1B2X 
    *   2    0.036029  (24050,24050)  1A1X 2A1X 3A1X 4A1X 1B1X 1B2X 2B1X 
    *   3    0.036029  (17536,17536)  1A1X 2A1X 3A1X 4A1X 1B1X 1B2X 2B2X 
    *   4    0.031768  (12808,12808)  1A1X 2A1X 3A1X 4A1X 5A1X 1B1X 4B2X 
    *   5    0.031768  ( 8700, 8700)  1A1X 2A1X 3A1X 4A1X 5A1X 1B2X 4B1X 
    *   6    0.024212  ( 8076, 8700)  1A1X 2A1X 3A1X 4A1X 5A1X 1B2X 2B1A 4B1B 
    *   7    0.024212  ( 8700, 8076)  1A1X 2A1X 3A1X 4A1X 5A1X 1B2X 2B1B 4B1A 
    *   8    0.024212  ( 9312,12808)  1A1X 2A1X 3A1X 4A1X 5A1X 1B1X 2B2A 4B2B 
    *   9    0.024212  (12808, 9312)  1A1X 2A1X 3A1X 4A1X 5A1X 1B1X 2B2B 4B2A 
    *  10    0.023083  ( 8076, 8076)  1A1X 2A1X 3A1X 4A1X 5A1X 1B2X 2B1X 
    *  11    0.023083  ( 9312, 9312)  1A1X 2A1X 3A1X 4A1X 5A1X 1B1X 2B2X 
    *  12   -0.022421  ( 8700,12808)  1A1X 2A1X 3A1X 4A1X 5A1X 1B1B 1B2A 4B1A 4B2B 
    *  13   -0.022421  (12808, 8700)  1A1X 2A1X 3A1X 4A1X 5A1X 1B1A 1B2B 4B1B 4B2A 
    *  14    0.020989  ( 7846, 7846)  1A1X 2A1X 3A1X 5A1X 1B1X 1B2X 8A1X 
    *  15    0.020687  ( 7825, 7825)  1A1X 2A1X 3A1X 4A1X 1B1X 1B2X 6A1X 
    *  16    0.019340  ( 7845, 7845)  1A1X 2A1X 3A1X 4A1X 1B1X 1B2X 8A1X 
    *  17    0.019109  ( 7831, 7831)  1A1X 2A1X 3A1X 5A1X 1B1X 1B2X 7A1X 
    *  18   -0.018515  ( 7825, 7831)  1A1X 2A1X 3A1X 4A1A 5A1B 1B1X 1B2X 6A1A 7A1B 
    *  19   -0.018515  ( 7831, 7825)  1A1X 2A1X 3A1X 4A1B 5A1A 1B1X 1B2X 6A1B 7A1A 
    *  20    0.017577  ( 7846, 7880)  1A1X 2A1X 3A1X 4A1B 5A1A 1B1X 1B2X 8A1A 9A1B 

		 "A good bug is a dead bug" 

			 - Starship Troopers

		 "I didn't write FORTRAN.  That's the problem."

			 - Edward Valeev
Molecule: Setting geometry variable R to 0.700000

*** tstart() called on comp0002
*** at Tue Jul  9 13:09:15 2019

   => Loading Basis Set <=

    Name: 6-31G
    Role: ORBITAL
    Keyword: BASIS
    atoms 1-2 entry N          line   102 file /usr/local/psi4/share/psi4/basis/6-31g.gbs 


         ---------------------------------------------------------
                                   SCF
            by Justin Turney, Rob Parrish, Andy Simmonett
                             and Daniel Smith
                              RHF Reference
                       16 Threads,    500 MiB Core
         ---------------------------------------------------------

  ==> Geometry <==

    Molecular point group: c2v
    Full point group: C_inf_v

    Geometry (in Angstrom), charge = 0, multiplicity = 1:

       Center              X                  Y                   Z               Mass       
    ------------   -----------------  -----------------  -----------------  -----------------
         N            0.700000000000     0.000000000000     0.000000000000    14.003074004780
         N            0.000000000000     0.000000000000     0.000000000000    14.003074004780

  Running in c2v symmetry.

  Rotational constants: A = ************  B =      2.45684  C =      2.45684 [cm^-1]
  Rotational constants: A = ************  B =  73654.23650  C =  73654.23650 [MHz]
  Nuclear repulsion =   37.042404601299999

  Charge       = 0
  Multiplicity = 1
  Electrons    = 14
  Nalpha       = 7
  Nbeta        = 7

  ==> Algorithm <==

  SCF Algorithm Type is DF.
  DIIS enabled.
  MOM disabled.
  Fractional occupation disabled.
  Guess Type is CORE.
  Energy threshold   = 1.00e-06
  Density threshold  = 1.00e-06
  Integral threshold = 0.00e+00

  ==> Primary Basis <==

  Basis Set: 6-31G
    Blend: 6-31G
    Number of shells: 10
    Number of basis function: 18
    Number of Cartesian functions: 18
    Spherical Harmonics?: false
    Max angular momentum: 1

   => Loading Basis Set <=

    Name: (6-31G AUX)
    Role: JKFIT
    Keyword: DF_BASIS_SCF
    atoms 1-2 entry N          line   171 file /usr/local/psi4/share/psi4/basis/cc-pvdz-jkfit.gbs 

  ==> Pre-Iterations <==

   -------------------------------------------------------
    Irrep   Nso     Nmo     Nalpha   Nbeta   Ndocc  Nsocc
   -------------------------------------------------------
     A1        10      10       0       0       0       0
     A2         0       0       0       0       0       0
     B1         4       4       0       0       0       0
     B2         4       4       0       0       0       0
   -------------------------------------------------------
    Total      18      18       7       7       7       0
   -------------------------------------------------------

  ==> Integral Setup <==

  ==> DiskDFJK: Density-Fitted J/K Matrices <==

    J tasked:                  Yes
    K tasked:                  Yes
    wK tasked:                  No
    OpenMP threads:             16
    Integrals threads:          16
    Memory (MB):               375
    Algorithm:                Core
    Integral Cache:           NONE
    Schwarz Cutoff:          1E-12
    Fitting Condition:       1E-12

   => Auxiliary Basis Set <=

  Basis Set: (6-31G AUX)
    Blend: CC-PVDZ-JKFIT
    Number of shells: 48
    Number of basis function: 162
    Number of Cartesian functions: 162
    Spherical Harmonics?: false
    Max angular momentum: 3

  Minimum eigenvalue in the overlap matrix is 6.2220959217E-04.
  Using Symmetric Orthogonalization.

  SCF Guess: Core (One-Electron) Hamiltonian.

  ==> Iterations <==

                           Total Energy        Delta E     RMS |[F,P]|

    Occupation by irrep:
             A1    A2    B1    B2 
    DOCC [     5,    0,    1,    1 ]

   @DF-RHF iter   1:  -101.32044557917192   -1.01320e+02   1.82891e-01 
   @DF-RHF iter   2:  -106.11032216570727   -4.78988e+00   1.38311e-01 DIIS
   @DF-RHF iter   3:  -107.41291761705226   -1.30260e+00   2.94781e-02 DIIS
   @DF-RHF iter   4:  -107.49301303319073   -8.00954e-02   4.86601e-03 DIIS
   @DF-RHF iter   5:  -107.49554371776661   -2.53068e-03   5.39750e-04 DIIS
   @DF-RHF iter   6:  -107.49556784808236   -2.41303e-05   6.01311e-05 DIIS
   @DF-RHF iter   7:  -107.49556803246767   -1.84385e-07   3.98960e-06 DIIS
   @DF-RHF iter   8:  -107.49556803336600   -8.98325e-10   3.07029e-07 DIIS

  ==> Post-Iterations <==

    Orbital Energies [Eh]
    ---------------------

    Doubly Occupied:                                                      

       1A1   -15.741506     2A1   -15.647973     3A1    -1.715622  
       1B2    -0.891263     1B1    -0.891263     4A1    -0.640754  
       5A1    -0.619277  

    Virtual:                                                              

       2B2     0.409099     2B1     0.409099     6A1     0.657594  
       3B2     0.678770     3B1     0.678770     7A1     0.699455  
       8A1     1.008302     4B1     1.284371     4B2     1.284371  
       9A1     1.470511    10A1     3.965568  

    Final Occupation by Irrep:
             A1    A2    B1    B2 
    DOCC [     5,    0,    1,    1 ]

  Energy converged.

  @DF-RHF Final Energy:  -107.49556803336600

   => Energetics <=

    Nuclear Repulsion Energy =             37.0424046012999995
    One-Electron Energy =                -216.7806380762435765
    Two-Electron Energy =                  72.2426654415775715
    Total Energy =                       -107.4955680333659984



Properties will be evaluated at   0.000000,   0.000000,   0.000000 [a0]

Properties computed using the SCF density matrix

  Nuclear Dipole Moment: [e a0]
     X:     9.2597      Y:     0.0000      Z:     0.0000

  Electronic Dipole Moment: [e a0]
     X:    -9.2597      Y:     0.0000      Z:     0.0000

  Dipole Moment: [e a0]
     X:    -0.0000      Y:     0.0000      Z:     0.0000     Total:     0.0000

  Dipole Moment: [D]
     X:    -0.0000      Y:     0.0000      Z:     0.0000     Total:     0.0000


*** tstop() called on comp0002 at Tue Jul  9 13:09:16 2019
Module time:
	user time   =       6.42 seconds =       0.11 minutes
	system time =       8.53 seconds =       0.14 minutes
	total time  =          1 seconds =       0.02 minutes
Total time:
	user time   =    5224.99 seconds =      87.08 minutes
	system time =     567.88 seconds =       9.46 minutes
	total time  =       5746 seconds =      95.77 minutes

*** tstart() called on comp0002
*** at Tue Jul  9 13:09:16 2019

   => Loading Basis Set <=

    Name: 6-31G
    Role: ORBITAL
    Keyword: BASIS
    atoms 1-2 entry N          line   102 file /usr/local/psi4/share/psi4/basis/6-31g.gbs 


         ---------------------------------------------------------
                                   SCF
            by Justin Turney, Rob Parrish, Andy Simmonett
                             and Daniel Smith
                              RHF Reference
                       16 Threads,    500 MiB Core
         ---------------------------------------------------------

  ==> Geometry <==

    Molecular point group: c2v
    Full point group: C_inf_v

    Geometry (in Angstrom), charge = 0, multiplicity = 1:

       Center              X                  Y                   Z               Mass       
    ------------   -----------------  -----------------  -----------------  -----------------
         N            0.700000000000     0.000000000000     0.000000000000    14.003074004780
         N            0.000000000000     0.000000000000     0.000000000000    14.003074004780

  Running in c2v symmetry.

  Rotational constants: A = ************  B =      2.45684  C =      2.45684 [cm^-1]
  Rotational constants: A = ************  B =  73654.23650  C =  73654.23650 [MHz]
  Nuclear repulsion =   37.042404601299999

  Charge       = 0
  Multiplicity = 1
  Electrons    = 14
  Nalpha       = 7
  Nbeta        = 7

  ==> Algorithm <==

  SCF Algorithm Type is PK.
  DIIS enabled.
  MOM disabled.
  Fractional occupation disabled.
  Guess Type is CORE.
  Energy threshold   = 1.00e-08
  Density threshold  = 1.00e-08
  Integral threshold = 0.00e+00

  ==> Primary Basis <==

  Basis Set: 6-31G
    Blend: 6-31G
    Number of shells: 10
    Number of basis function: 18
    Number of Cartesian functions: 18
    Spherical Harmonics?: false
    Max angular momentum: 1

  ==> Pre-Iterations <==

   -------------------------------------------------------
    Irrep   Nso     Nmo     Nalpha   Nbeta   Ndocc  Nsocc
   -------------------------------------------------------
     A1        10      10       0       0       0       0
     A2         0       0       0       0       0       0
     B1         4       4       0       0       0       0
     B2         4       4       0       0       0       0
   -------------------------------------------------------
    Total      18      18       7       7       7       0
   -------------------------------------------------------

  ==> Integral Setup <==

  Using in-core PK algorithm.
   Calculation information:
      Number of atoms:                   2
      Number of AO shells:              10
      Number of primitives:             28
      Number of atomic orbitals:        18
      Number of basis functions:        18

      Integral cutoff                 1.00e-12
      Number of threads:                16

  Performing in-core PK
  Using 29412 doubles for integral storage.
  We computed 5373 shell quartets total.
  Whereas there are 1540 unique shell quartets.
   248.90 percent of shell quartets recomputed by reordering.

  ==> DiskJK: Disk-Based J/K Matrices <==

    J tasked:                  Yes
    K tasked:                  Yes
    wK tasked:                  No
    Memory (MB):               375
    Schwarz Cutoff:          1E-12

    OpenMP threads:             16

  Minimum eigenvalue in the overlap matrix is 6.2220959217E-04.
  Using Symmetric Orthogonalization.

  SCF Guess: Core (One-Electron) Hamiltonian.

  ==> Iterations <==

                        Total Energy        Delta E     RMS |[F,P]|

    Occupation by irrep:
             A1    A2    B1    B2 
    DOCC [     5,    0,    1,    1 ]

   @RHF iter   1:  -101.32175304237224   -1.01322e+02   2.87865e-01 
   @RHF iter   2:  -106.11053287735790   -4.78878e+00   2.54604e-01 DIIS
   @RHF iter   3:  -107.41309921826434   -1.30257e+00   4.23829e-02 DIIS
   @RHF iter   4:  -107.49321598104883   -8.01168e-02   7.47456e-03 DIIS
   @RHF iter   5:  -107.49574582479197   -2.52984e-03   8.07521e-04 DIIS
   @RHF iter   6:  -107.49576993320950   -2.41084e-05   9.29379e-05 DIIS
   @RHF iter   7:  -107.49577011761656   -1.84407e-07   4.63528e-06 DIIS
   @RHF iter   8:  -107.49577011851395   -8.97387e-10   4.71574e-07 DIIS
   @RHF iter   9:  -107.49577011852197   -8.02913e-12   4.51278e-08 DIIS
   @RHF iter  10:  -107.49577011852205   -7.10543e-14   1.31208e-09 DIIS

  ==> Post-Iterations <==

    Orbital Energies [Eh]
    ---------------------

    Doubly Occupied:                                                      

       1A1   -15.741432     2A1   -15.647893     3A1    -1.715589  
       1B1    -0.891295     1B2    -0.891295     4A1    -0.640763  
       5A1    -0.619251  

    Virtual:                                                              

       2B2     0.409095     2B1     0.409095     6A1     0.657618  
       3B2     0.678712     3B1     0.678712     7A1     0.699435  
       8A1     1.008317     4B1     1.284345     4B2     1.284345  
       9A1     1.470531    10A1     3.965537  

    Final Occupation by Irrep:
             A1    A2    B1    B2 
    DOCC [     5,    0,    1,    1 ]

  Energy converged.

  @RHF Final Energy:  -107.49577011852205

   => Energetics <=

    Nuclear Repulsion Energy =             37.0424046012999995
    One-Electron Energy =                -216.7813140253448125
    Two-Electron Energy =                  72.2431393055227602
    Total Energy =                       -107.4957701185220458



Properties will be evaluated at   0.000000,   0.000000,   0.000000 [a0]

Properties computed using the SCF density matrix

  Nuclear Dipole Moment: [e a0]
     X:     9.2597      Y:     0.0000      Z:     0.0000

  Electronic Dipole Moment: [e a0]
     X:    -9.2597      Y:     0.0000      Z:     0.0000

  Dipole Moment: [e a0]
     X:     0.0000      Y:     0.0000      Z:     0.0000     Total:     0.0000

  Dipole Moment: [D]
     X:     0.0000      Y:     0.0000      Z:     0.0000     Total:     0.0000


*** tstop() called on comp0002 at Tue Jul  9 13:09:17 2019
Module time:
	user time   =       0.78 seconds =       0.01 minutes
	system time =       0.21 seconds =       0.00 minutes
	total time  =          1 seconds =       0.02 minutes
Total time:
	user time   =    5225.89 seconds =      87.10 minutes
	system time =     568.35 seconds =       9.47 minutes
	total time  =       5747 seconds =      95.78 minutes
 MINTS: Wrapper to libmints.
   by Justin Turney

   Calculation information:
      Number of threads:                16
      Number of atoms:                   2
      Number of AO shells:              10
      Number of SO shells:              10
      Number of primitives:             28
      Number of atomic orbitals:        18
      Number of basis functions:        18

      Number of irreps:                  4
      Integral cutoff                 0.00e+00
      Number of functions per irrep: [  10    0    4    4 ]

 OEINTS: Overlap, kinetic, potential, dipole, and quadrupole integrals
         stored in file 35.

      Computing two-electron integrals...done
      Computed 4350 non-zero two-electron integrals.
        Stored in file 33.


         ---------------------------------------------------------
                          Configuration Interaction
                            (a 'D E T C I' module)

                 C. David Sherrill, Daniel G. A. Smith, and
                              Matt L. Leininger
         ---------------------------------------------------------


   ==> Parameters <==

    EX LEVEL       =       14      H0 BLOCKSIZE  =     1000
    VAL EX LEVEL   =        0      H0 GUESS SIZE =     1000
    H0COUPLINGSIZE =        0      H0 COUPLING   =       NO
    MAXITER        =       24      NUM PRINT     =       20
    NUM ROOTS      =        1      ICORE         =        1
    PRINT LVL      =        1      FCI           =      YES
    R CONV         = 1.00e-04      MIXED         =      YES
    E CONV         = 1.00e-06      MIXED4        =      YES
    R4S            =       NO      REPL OTF      =       NO
    DIAG METHOD    =      SEM      FOLLOW ROOT   =        0
    PRECONDITIONER = DAVIDSON      UPDATE        = DAVIDSON
    S              =   0.0000      Ms0           =      YES
    GUESS VECTOR   =  H0BLOCK      OPENTYPE      =     NONE
    COLLAPSE SIZE  =        1      HD AVG        = EVANGELISTI
    MAX NUM VECS   =       25      REF SYM       =     AUTO
    IOPEN        =       NO

    EX ALLOW       =  1  1  1  1  1  1  1  1  1  1  1  1  1  1 
    STATE AVERAGE  =  0(1.00) 

   ==> CI Orbital and Space information <==

   ------------------------------------------------------
               Space    Total    A1    A2    B1    B2
   ------------------------------------------------------
                 Nso       18    10     0     4     4
                 Nmo       18    10     0     4     4
               Ndocc        7     5     0     1     1
               Nsocc        0     0     0     0     0
   ------------------------------------------------------
                       CI Spaces
   ------------------------------------------------------
        Dropped DOCC        0     0     0     0     0
              Active       18    10     0     4     4
        Dropped UOCC        0     0     0     0     0
   ------------------------------------------------------

   ==> Setting up CI strings <==

    There are 31824 alpha and 31824 beta strings
    The CI space requires 253216512 (2.53E+08) determinants and 4 blocks

   ==> Transforming CI integrals <==

	Presorting SO-basis two-electron integrals.
	Sorting File: SO Ints (nn|nn) nbuckets = 1
	Transforming the one-electron integrals and constructing Fock matrices
	Starting first half-transformation.
	Sorting half-transformed integrals.
	First half integral transformation complete.
	Starting second half-transformation.
	Two-electron integral transformation complete.

   ==> Starting CI iterations <==

    H0 Block Eigenvalue = -107.58966747

    Simultaneous Expansion Method (Block Davidson Method)
    Using 1 initial trial vectors

     Iter   Root       Total Energy       Delta E      C RMS

   @CI  0:     0   -107.589667470384   -1.4463E+02   5.7034E-01  
   @CI  1:     0   -107.641260294396   -5.1593E-02   1.1848E-01  
   @CI  2:     0   -107.643109745753   -1.8495E-03   2.9663E-02  
   @CI  3:     0   -107.643235900544   -1.2615E-04   8.6869E-03  
   @CI  4:     0   -107.643247213674   -1.1313E-05   3.0373E-03  
   @CI  5:     0   -107.643248678567   -1.4649E-06   1.1195E-03  
   @CI  6:     0   -107.643248847132   -1.6856E-07   3.6458E-04  
   @CI  7:     0   -107.643248864200   -1.7068E-08   1.1827E-04  
   @CI  8:     0   -107.643248865850   -1.6498E-09   3.7079E-05 c

   ==> Energetics <==

    SCF energy =         -107.495770118522046
    Total CI energy =    -107.643248865849500

   ==> FCI root 0 information <==

    FCI Root 0 energy =  -107.643248865849500

   The 20 most important determinants:

    *   1   -0.976999  ( 7824, 7824)  1A1X 2A1X 3A1X 4A1X 5A1X 1B1X 1B2X 
    *   2    0.040022  (24050,24050)  1A1X 2A1X 3A1X 4A1X 1B1X 1B2X 2B1X 
    *   3    0.040022  (17536,17536)  1A1X 2A1X 3A1X 4A1X 1B1X 1B2X 2B2X 
    *   4    0.036562  ( 8076, 8076)  1A1X 2A1X 3A1X 4A1X 5A1X 1B2X 2B1X 
    *   5    0.036562  ( 9312, 9312)  1A1X 2A1X 3A1X 4A1X 5A1X 1B1X 2B2X 
    *   6    0.030732  ( 8700, 8700)  1A1X 2A1X 3A1X 4A1X 5A1X 1B2X 4B1X 
    *   7    0.030732  (12808,12808)  1A1X 2A1X 3A1X 4A1X 5A1X 1B1X 4B2X 
    *   8    0.029416  ( 8076, 8700)  1A1X 2A1X 3A1X 4A1X 5A1X 1B2X 2B1A 4B1B 
    *   9    0.029416  ( 8700, 8076)  1A1X 2A1X 3A1X 4A1X 5A1X 1B2X 2B1B 4B1A 
    *  10    0.029416  ( 9312,12808)  1A1X 2A1X 3A1X 4A1X 5A1X 1B1X 2B2A 4B2B 
    *  11    0.029416  (12808, 9312)  1A1X 2A1X 3A1X 4A1X 5A1X 1B1X 2B2B 4B2A 
    *  12   -0.026263  ( 8076, 9312)  1A1X 2A1X 3A1X 4A1X 5A1X 1B1B 1B2A 2B1A 2B2B 
    *  13   -0.026263  ( 9312, 8076)  1A1X 2A1X 3A1X 4A1X 5A1X 1B1A 1B2B 2B1B 2B2A 
    *  14    0.023878  ( 7846, 7846)  1A1X 2A1X 3A1X 5A1X 1B1X 1B2X 8A1X 
    *  15   -0.021531  ( 8700,12808)  1A1X 2A1X 3A1X 4A1X 5A1X 1B1B 1B2A 4B1A 4B2B 
    *  16   -0.021531  (12808, 8700)  1A1X 2A1X 3A1X 4A1X 5A1X 1B1A 1B2B 4B1B 4B2A 
    *  17    0.021230  ( 7845, 7845)  1A1X 2A1X 3A1X 4A1X 1B1X 1B2X 8A1X 
    *  18    0.020909  ( 8328, 8328)  1A1X 2A1X 3A1X 4A1X 5A1X 1B2X 3B1X 
    *  19    0.020909  (10800,10800)  1A1X 2A1X 3A1X 4A1X 5A1X 1B1X 3B2X 
    *  20   -0.020557  ( 8076,12808)  1A1X 2A1X 3A1X 4A1X 5A1X 1B1B 1B2A 2B1A 4B2B 

		 "A good bug is a dead bug" 

			 - Starship Troopers

		 "I didn't write FORTRAN.  That's the problem."

			 - Edward Valeev
Molecule: Setting geometry variable R to 0.800000

*** tstart() called on comp0002
*** at Tue Jul  9 14:00:36 2019

   => Loading Basis Set <=

    Name: 6-31G
    Role: ORBITAL
    Keyword: BASIS
    atoms 1-2 entry N          line   102 file /usr/local/psi4/share/psi4/basis/6-31g.gbs 


         ---------------------------------------------------------
                                   SCF
            by Justin Turney, Rob Parrish, Andy Simmonett
                             and Daniel Smith
                              RHF Reference
                       16 Threads,    500 MiB Core
         ---------------------------------------------------------

  ==> Geometry <==

    Molecular point group: c2v
    Full point group: C_inf_v

    Geometry (in Angstrom), charge = 0, multiplicity = 1:

       Center              X                  Y                   Z               Mass       
    ------------   -----------------  -----------------  -----------------  -----------------
         N            0.800000000000     0.000000000000     0.000000000000    14.003074004780
         N            0.000000000000     0.000000000000     0.000000000000    14.003074004780

  Running in c2v symmetry.

  Rotational constants: A = ************  B =      1.88102  C =      1.88102 [cm^-1]
  Rotational constants: A = ************  B =  56391.52482  C =  56391.52482 [MHz]
  Nuclear repulsion =   32.412104026137499

  Charge       = 0
  Multiplicity = 1
  Electrons    = 14
  Nalpha       = 7
  Nbeta        = 7

  ==> Algorithm <==

  SCF Algorithm Type is DF.
  DIIS enabled.
  MOM disabled.
  Fractional occupation disabled.
  Guess Type is CORE.
  Energy threshold   = 1.00e-06
  Density threshold  = 1.00e-06
  Integral threshold = 0.00e+00

  ==> Primary Basis <==

  Basis Set: 6-31G
    Blend: 6-31G
    Number of shells: 10
    Number of basis function: 18
    Number of Cartesian functions: 18
    Spherical Harmonics?: false
    Max angular momentum: 1

   => Loading Basis Set <=

    Name: (6-31G AUX)
    Role: JKFIT
    Keyword: DF_BASIS_SCF
    atoms 1-2 entry N          line   171 file /usr/local/psi4/share/psi4/basis/cc-pvdz-jkfit.gbs 

  ==> Pre-Iterations <==

   -------------------------------------------------------
    Irrep   Nso     Nmo     Nalpha   Nbeta   Ndocc  Nsocc
   -------------------------------------------------------
     A1        10      10       0       0       0       0
     A2         0       0       0       0       0       0
     B1         4       4       0       0       0       0
     B2         4       4       0       0       0       0
   -------------------------------------------------------
    Total      18      18       7       7       7       0
   -------------------------------------------------------

  ==> Integral Setup <==

  ==> DiskDFJK: Density-Fitted J/K Matrices <==

    J tasked:                  Yes
    K tasked:                  Yes
    wK tasked:                  No
    OpenMP threads:             16
    Integrals threads:          16
    Memory (MB):               375
    Algorithm:                Core
    Integral Cache:           NONE
    Schwarz Cutoff:          1E-12
    Fitting Condition:       1E-12

   => Auxiliary Basis Set <=

  Basis Set: (6-31G AUX)
    Blend: CC-PVDZ-JKFIT
    Number of shells: 48
    Number of basis function: 162
    Number of Cartesian functions: 162
    Spherical Harmonics?: false
    Max angular momentum: 3

  Minimum eigenvalue in the overlap matrix is 1.3377802126E-03.
  Using Symmetric Orthogonalization.

  SCF Guess: Core (One-Electron) Hamiltonian.

  ==> Iterations <==

                           Total Energy        Delta E     RMS |[F,P]|

    Occupation by irrep:
             A1    A2    B1    B2 
    DOCC [     5,    0,    1,    1 ]

   @DF-RHF iter   1:  -102.48127340961925   -1.02481e+02   1.70508e-01 
   @DF-RHF iter   2:  -106.94873247470861   -4.46746e+00   1.31318e-01 DIIS
   @DF-RHF iter   3:  -108.21186004626118   -1.26313e+00   3.50038e-02 DIIS
   @DF-RHF iter   4:  -108.29273386315685   -8.08738e-02   5.01699e-03 DIIS
   @DF-RHF iter   5:  -108.29532879015380   -2.59493e-03   4.39072e-04 DIIS
   @DF-RHF iter   6:  -108.29534596323774   -1.71731e-05   4.67070e-05 DIIS
   @DF-RHF iter   7:  -108.29534612379150   -1.60554e-07   3.02935e-06 DIIS
   @DF-RHF iter   8:  -108.29534612444013   -6.48626e-10   3.09100e-07 DIIS

  ==> Post-Iterations <==

    Orbital Energies [Eh]
    ---------------------

    Doubly Occupied:                                                      

       1A1   -15.676244     2A1   -15.640779     3A1    -1.717790  
       1B1    -0.797783     1B2    -0.797783     4A1    -0.662210  
       5A1    -0.643099  

    Virtual:                                                              

       2B2     0.339515     2B1     0.339515     6A1     0.650429  
       7A1     0.706513     3B1     0.732180     3B2     0.732180  
       8A1     0.991435     4B2     1.172970     4B1     1.172970  
       9A1     1.425133    10A1     2.898778  

    Final Occupation by Irrep:
             A1    A2    B1    B2 
    DOCC [     5,    0,    1,    1 ]

  Energy converged.

  @DF-RHF Final Energy:  -108.29534612444013

   => Energetics <=

    Nuclear Repulsion Energy =             32.4121040261374986
    One-Electron Energy =                -209.5435264708659417
    Two-Electron Energy =                  68.8360763202883277
    Total Energy =                       -108.2953461244401296



Properties will be evaluated at   0.000000,   0.000000,   0.000000 [a0]

Properties computed using the SCF density matrix

  Nuclear Dipole Moment: [e a0]
     X:    10.5825      Y:     0.0000      Z:     0.0000

  Electronic Dipole Moment: [e a0]
     X:   -10.5825      Y:     0.0000      Z:     0.0000

  Dipole Moment: [e a0]
     X:    -0.0000      Y:     0.0000      Z:     0.0000     Total:     0.0000

  Dipole Moment: [D]
     X:    -0.0000      Y:     0.0000      Z:     0.0000     Total:     0.0000


*** tstop() called on comp0002 at Tue Jul  9 14:00:38 2019
Module time:
	user time   =       7.37 seconds =       0.12 minutes
	system time =      10.35 seconds =       0.17 minutes
	total time  =          2 seconds =       0.03 minutes
Total time:
	user time   =    8009.49 seconds =     133.49 minutes
	system time =     880.16 seconds =      14.67 minutes
	total time  =       8828 seconds =     147.13 minutes

*** tstart() called on comp0002
*** at Tue Jul  9 14:00:38 2019

   => Loading Basis Set <=

    Name: 6-31G
    Role: ORBITAL
    Keyword: BASIS
    atoms 1-2 entry N          line   102 file /usr/local/psi4/share/psi4/basis/6-31g.gbs 


         ---------------------------------------------------------
                                   SCF
            by Justin Turney, Rob Parrish, Andy Simmonett
                             and Daniel Smith
                              RHF Reference
                       16 Threads,    500 MiB Core
         ---------------------------------------------------------

  ==> Geometry <==

    Molecular point group: c2v
    Full point group: C_inf_v

    Geometry (in Angstrom), charge = 0, multiplicity = 1:

       Center              X                  Y                   Z               Mass       
    ------------   -----------------  -----------------  -----------------  -----------------
         N            0.800000000000     0.000000000000     0.000000000000    14.003074004780
         N            0.000000000000     0.000000000000     0.000000000000    14.003074004780

  Running in c2v symmetry.

  Rotational constants: A = ************  B =      1.88102  C =      1.88102 [cm^-1]
  Rotational constants: A = ************  B =  56391.52482  C =  56391.52482 [MHz]
  Nuclear repulsion =   32.412104026137499

  Charge       = 0
  Multiplicity = 1
  Electrons    = 14
  Nalpha       = 7
  Nbeta        = 7

  ==> Algorithm <==

  SCF Algorithm Type is PK.
  DIIS enabled.
  MOM disabled.
  Fractional occupation disabled.
  Guess Type is CORE.
  Energy threshold   = 1.00e-08
  Density threshold  = 1.00e-08
  Integral threshold = 0.00e+00

  ==> Primary Basis <==

  Basis Set: 6-31G
    Blend: 6-31G
    Number of shells: 10
    Number of basis function: 18
    Number of Cartesian functions: 18
    Spherical Harmonics?: false
    Max angular momentum: 1

  ==> Pre-Iterations <==

   -------------------------------------------------------
    Irrep   Nso     Nmo     Nalpha   Nbeta   Ndocc  Nsocc
   -------------------------------------------------------
     A1        10      10       0       0       0       0
     A2         0       0       0       0       0       0
     B1         4       4       0       0       0       0
     B2         4       4       0       0       0       0
   -------------------------------------------------------
    Total      18      18       7       7       7       0
   -------------------------------------------------------

  ==> Integral Setup <==

  Using in-core PK algorithm.
   Calculation information:
      Number of atoms:                   2
      Number of AO shells:              10
      Number of primitives:             28
      Number of atomic orbitals:        18
      Number of basis functions:        18

      Integral cutoff                 1.00e-12
      Number of threads:                16

  Performing in-core PK
  Using 29412 doubles for integral storage.
  We computed 5373 shell quartets total.
  Whereas there are 1540 unique shell quartets.
   248.90 percent of shell quartets recomputed by reordering.

  ==> DiskJK: Disk-Based J/K Matrices <==

    J tasked:                  Yes
    K tasked:                  Yes
    wK tasked:                  No
    Memory (MB):               375
    Schwarz Cutoff:          1E-12

    OpenMP threads:             16

  Minimum eigenvalue in the overlap matrix is 1.3377802126E-03.
  Using Symmetric Orthogonalization.

  SCF Guess: Core (One-Electron) Hamiltonian.

  ==> Iterations <==

                        Total Energy        Delta E     RMS |[F,P]|

    Occupation by irrep:
             A1    A2    B1    B2 
    DOCC [     5,    0,    1,    1 ]

   @RHF iter   1:  -102.48219003151807   -1.02482e+02   2.88808e-01 
   @RHF iter   2:  -106.94879495827337   -4.46660e+00   1.94774e-01 DIIS
   @RHF iter   3:  -108.21200793634819   -1.26321e+00   5.47340e-02 DIIS
   @RHF iter   4:  -108.29289986603879   -8.08919e-02   7.50792e-03 DIIS
   @RHF iter   5:  -108.29549403767240   -2.59417e-03   6.75669e-04 DIIS
   @RHF iter   6:  -108.29551118771046   -1.71500e-05   9.79221e-05 DIIS
   @RHF iter   7:  -108.29551134809165   -1.60381e-07   5.49380e-06 DIIS
   @RHF iter   8:  -108.29551134873931   -6.47660e-10   5.29668e-07 DIIS
   @RHF iter   9:  -108.29551134874509   -5.78382e-12   4.58310e-08 DIIS
   @RHF iter  10:  -108.29551134874518   -8.52651e-14   9.40543e-10 DIIS

  ==> Post-Iterations <==

    Orbital Energies [Eh]
    ---------------------

    Doubly Occupied:                                                      

       1A1   -15.676172     2A1   -15.640705     3A1    -1.717761  
       1B2    -0.797808     1B1    -0.797808     4A1    -0.662185  
       5A1    -0.643102  

    Virtual:                                                              

       2B1     0.339519     2B2     0.339519     6A1     0.650454  
       7A1     0.706476     3B1     0.732109     3B2     0.732109  
       8A1     0.991450     4B1     1.172938     4B2     1.172938  
       9A1     1.425162    10A1     2.898754  

    Final Occupation by Irrep:
             A1    A2    B1    B2 
    DOCC [     5,    0,    1,    1 ]

  Energy converged.

  @RHF Final Energy:  -108.29551134874518

   => Energetics <=

    Nuclear Repulsion Energy =             32.4121040261374986
    One-Electron Energy =                -209.5441474552512773
    Two-Electron Energy =                  68.8365320803685847
    Total Energy =                       -108.2955113487451797



Properties will be evaluated at   0.000000,   0.000000,   0.000000 [a0]

Properties computed using the SCF density matrix

  Nuclear Dipole Moment: [e a0]
     X:    10.5825      Y:     0.0000      Z:     0.0000

  Electronic Dipole Moment: [e a0]
     X:   -10.5825      Y:     0.0000      Z:     0.0000

  Dipole Moment: [e a0]
     X:     0.0000      Y:     0.0000      Z:     0.0000     Total:     0.0000

  Dipole Moment: [D]
     X:     0.0000      Y:     0.0000      Z:     0.0000     Total:     0.0000


*** tstop() called on comp0002 at Tue Jul  9 14:00:38 2019
Module time:
	user time   =       0.82 seconds =       0.01 minutes
	system time =       0.51 seconds =       0.01 minutes
	total time  =          0 seconds =       0.00 minutes
Total time:
	user time   =    8010.37 seconds =     133.51 minutes
	system time =     880.97 seconds =      14.68 minutes
	total time  =       8828 seconds =     147.13 minutes
 MINTS: Wrapper to libmints.
   by Justin Turney

   Calculation information:
      Number of threads:                16
      Number of atoms:                   2
      Number of AO shells:              10
      Number of SO shells:              10
      Number of primitives:             28
      Number of atomic orbitals:        18
      Number of basis functions:        18

      Number of irreps:                  4
      Integral cutoff                 0.00e+00
      Number of functions per irrep: [  10    0    4    4 ]

 OEINTS: Overlap, kinetic, potential, dipole, and quadrupole integrals
         stored in file 35.

      Computing two-electron integrals...done
      Computed 4350 non-zero two-electron integrals.
        Stored in file 33.


         ---------------------------------------------------------
                          Configuration Interaction
                            (a 'D E T C I' module)

                 C. David Sherrill, Daniel G. A. Smith, and
                              Matt L. Leininger
         ---------------------------------------------------------


   ==> Parameters <==

    EX LEVEL       =       14      H0 BLOCKSIZE  =     1000
    VAL EX LEVEL   =        0      H0 GUESS SIZE =     1000
    H0COUPLINGSIZE =        0      H0 COUPLING   =       NO
    MAXITER        =       24      NUM PRINT     =       20
    NUM ROOTS      =        1      ICORE         =        1
    PRINT LVL      =        1      FCI           =      YES
    R CONV         = 1.00e-04      MIXED         =      YES
    E CONV         = 1.00e-06      MIXED4        =      YES
    R4S            =       NO      REPL OTF      =       NO
    DIAG METHOD    =      SEM      FOLLOW ROOT   =        0
    PRECONDITIONER = DAVIDSON      UPDATE        = DAVIDSON
    S              =   0.0000      Ms0           =      YES
    GUESS VECTOR   =  H0BLOCK      OPENTYPE      =     NONE
    COLLAPSE SIZE  =        1      HD AVG        = EVANGELISTI
    MAX NUM VECS   =       25      REF SYM       =     AUTO
    IOPEN        =       NO

    EX ALLOW       =  1  1  1  1  1  1  1  1  1  1  1  1  1  1 
    STATE AVERAGE  =  0(1.00) 

   ==> CI Orbital and Space information <==

   ------------------------------------------------------
               Space    Total    A1    A2    B1    B2
   ------------------------------------------------------
                 Nso       18    10     0     4     4
                 Nmo       18    10     0     4     4
               Ndocc        7     5     0     1     1
               Nsocc        0     0     0     0     0
   ------------------------------------------------------
                       CI Spaces
   ------------------------------------------------------
        Dropped DOCC        0     0     0     0     0
              Active       18    10     0     4     4
        Dropped UOCC        0     0     0     0     0
   ------------------------------------------------------

   ==> Setting up CI strings <==

    There are 31824 alpha and 31824 beta strings
    The CI space requires 253216512 (2.53E+08) determinants and 4 blocks

   ==> Transforming CI integrals <==

	Presorting SO-basis two-electron integrals.
	Sorting File: SO Ints (nn|nn) nbuckets = 1
	Transforming the one-electron integrals and constructing Fock matrices
	Starting first half-transformation.
	Sorting half-transformed integrals.
	First half integral transformation complete.
	Starting second half-transformation.
	Two-electron integral transformation complete.

   ==> Starting CI iterations <==

    H0 Block Eigenvalue = -108.40628332

    Simultaneous Expansion Method (Block Davidson Method)
    Using 1 initial trial vectors

     Iter   Root       Total Energy       Delta E      C RMS

   @CI  0:     0   -108.406283315178   -1.4082E+02   5.6706E-01  
   @CI  1:     0   -108.462610438925   -5.6327E-02   1.2705E-01  
   @CI  2:     0   -108.464820893610   -2.2105E-03   3.3988E-02  
   @CI  3:     0   -108.464990486051   -1.6959E-04   1.0715E-02  
   @CI  4:     0   -108.465009009034   -1.8523E-05   4.0826E-03  
   @CI  5:     0   -108.465011866091   -2.8571E-06   1.5956E-03  
   @CI  6:     0   -108.465012222801   -3.5671E-07   5.2600E-04  
   @CI  7:     0   -108.465012260474   -3.7674E-08   1.7460E-04  
   @CI  8:     0   -108.465012264545   -4.0706E-09   5.6485E-05 c

   ==> Energetics <==

    SCF energy =         -108.295511348745180
    Total CI energy =    -108.465012264545024

   ==> FCI root 0 information <==

    FCI Root 0 energy =  -108.465012264545024

   The 20 most important determinants:

    *   1    0.971506  ( 7824, 7824)  1A1X 2A1X 3A1X 4A1X 5A1X 1B1X 1B2X 
    *   2   -0.053132  ( 8076, 8076)  1A1X 2A1X 3A1X 4A1X 5A1X 1B2X 2B1X 
    *   3   -0.053132  ( 9312, 9312)  1A1X 2A1X 3A1X 4A1X 5A1X 1B1X 2B2X 
    *   4   -0.043978  (24051,24051)  1A1X 2A1X 3A1X 5A1X 1B1X 1B2X 2B1X 
    *   5   -0.043978  (17537,17537)  1A1X 2A1X 3A1X 5A1X 1B1X 1B2X 2B2X 
    *   6    0.037301  ( 8076, 9312)  1A1X 2A1X 3A1X 4A1X 5A1X 1B1B 1B2A 2B1A 2B2B 
    *   7    0.037301  ( 9312, 8076)  1A1X 2A1X 3A1X 4A1X 5A1X 1B1A 1B2B 2B1B 2B2A 
    *   8   -0.032979  ( 8076, 8700)  1A1X 2A1X 3A1X 4A1X 5A1X 1B2X 2B1A 4B1B 
    *   9   -0.032979  ( 8700, 8076)  1A1X 2A1X 3A1X 4A1X 5A1X 1B2X 2B1B 4B1A 
    *  10   -0.032979  ( 9312,12808)  1A1X 2A1X 3A1X 4A1X 5A1X 1B1X 2B2A 4B2B 
    *  11   -0.032979  (12808, 9312)  1A1X 2A1X 3A1X 4A1X 5A1X 1B1X 2B2B 4B2A 
    *  12   -0.028145  ( 8700, 8700)  1A1X 2A1X 3A1X 4A1X 5A1X 1B2X 4B1X 
    *  13   -0.028145  (12808,12808)  1A1X 2A1X 3A1X 4A1X 5A1X 1B1X 4B2X 
    *  14   -0.026226  ( 7824, 9564)  1A1X 2A1X 3A1X 4A1X 5A1X 1B1A 1B2A 2B1B 2B2B 
    *  15   -0.026226  ( 9564, 7824)  1A1X 2A1X 3A1X 4A1X 5A1X 1B1B 1B2B 2B1A 2B2A 
    *  16   -0.024709  ( 7845, 7845)  1A1X 2A1X 3A1X 4A1X 1B1X 1B2X 8A1X 
    *  17   -0.023077  ( 8328, 8328)  1A1X 2A1X 3A1X 4A1X 5A1X 1B2X 3B1X 
    *  18   -0.023077  (10800,10800)  1A1X 2A1X 3A1X 4A1X 5A1X 1B1X 3B2X 
    *  19    0.022721  ( 8700, 9312)  1A1X 2A1X 3A1X 4A1X 5A1X 1B1B 1B2A 4B1A 2B2B 
    *  20    0.022721  ( 9312, 8700)  1A1X 2A1X 3A1X 4A1X 5A1X 1B1A 1B2B 4B1B 2B2A 

		 "A good bug is a dead bug" 

			 - Starship Troopers

		 "I didn't write FORTRAN.  That's the problem."

			 - Edward Valeev
Molecule: Setting geometry variable R to 0.900000

*** tstart() called on comp0002
*** at Tue Jul  9 14:52:02 2019

   => Loading Basis Set <=

    Name: 6-31G
    Role: ORBITAL
    Keyword: BASIS
    atoms 1-2 entry N          line   102 file /usr/local/psi4/share/psi4/basis/6-31g.gbs 


         ---------------------------------------------------------
                                   SCF
            by Justin Turney, Rob Parrish, Andy Simmonett
                             and Daniel Smith
                              RHF Reference
                       16 Threads,    500 MiB Core
         ---------------------------------------------------------

  ==> Geometry <==

    Molecular point group: c2v
    Full point group: C_inf_v

    Geometry (in Angstrom), charge = 0, multiplicity = 1:

       Center              X                  Y                   Z               Mass       
    ------------   -----------------  -----------------  -----------------  -----------------
         N            0.900000000000     0.000000000000     0.000000000000    14.003074004780
         N            0.000000000000     0.000000000000     0.000000000000    14.003074004780

  Running in c2v symmetry.

  Rotational constants: A = ************  B =      1.48624  C =      1.48624 [cm^-1]
  Rotational constants: A = ************  B =  44556.26652  C =  44556.26652 [MHz]
[...]
     X:   -79.3685      Y:     0.0000      Z:     0.0000

  Dipole Moment: [e a0]
     X:     0.0000      Y:     0.0000      Z:     0.0000     Total:     0.0000

  Dipole Moment: [D]
     X:     0.0000      Y:     0.0000      Z:     0.0000     Total:     0.0000


*** tstop() called on comp0002 at Wed Jul 10 10:30:07 2019
Module time:
	user time   =       0.57 seconds =       0.01 minutes
	system time =       0.11 seconds =       0.00 minutes
	total time  =          1 seconds =       0.02 minutes
Total time:
	user time   =   65020.99 seconds =    1083.68 minutes
	system time =    9454.46 seconds =     157.57 minutes
	total time  =      82597 seconds =    1376.62 minutes
 MINTS: Wrapper to libmints.
   by Justin Turney

   Calculation information:
      Number of threads:                16
      Number of atoms:                   2
      Number of AO shells:              10
      Number of SO shells:              10
      Number of primitives:             28
      Number of atomic orbitals:        18
      Number of basis functions:        18

      Number of irreps:                  4
      Integral cutoff                 0.00e+00
      Number of functions per irrep: [  10    0    4    4 ]

 OEINTS: Overlap, kinetic, potential, dipole, and quadrupole integrals
         stored in file 35.

      Computing two-electron integrals...done
      Computed 4350 non-zero two-electron integrals.
        Stored in file 33.


         ---------------------------------------------------------
                          Configuration Interaction
                            (a 'D E T C I' module)

                 C. David Sherrill, Daniel G. A. Smith, and
                              Matt L. Leininger
         ---------------------------------------------------------


   ==> Parameters <==

    EX LEVEL       =       14      H0 BLOCKSIZE  =     1000
    VAL EX LEVEL   =        0      H0 GUESS SIZE =     1000
    H0COUPLINGSIZE =        0      H0 COUPLING   =       NO
    MAXITER        =       24      NUM PRINT     =       20
    NUM ROOTS      =        1      ICORE         =        1
    PRINT LVL      =        1      FCI           =      YES
    R CONV         = 1.00e-04      MIXED         =      YES
    E CONV         = 1.00e-06      MIXED4        =      YES
    R4S            =       NO      REPL OTF      =       NO
    DIAG METHOD    =      SEM      FOLLOW ROOT   =        0
    PRECONDITIONER = DAVIDSON      UPDATE        = DAVIDSON
    S              =   0.0000      Ms0           =      YES
    GUESS VECTOR   =  H0BLOCK      OPENTYPE      =     NONE
    COLLAPSE SIZE  =        1      HD AVG        = EVANGELISTI
    MAX NUM VECS   =       25      REF SYM       =     AUTO
    IOPEN        =       NO

    EX ALLOW       =  1  1  1  1  1  1  1  1  1  1  1  1  1  1 
    STATE AVERAGE  =  0(1.00) 

   ==> CI Orbital and Space information <==

   ------------------------------------------------------
               Space    Total    A1    A2    B1    B2
   ------------------------------------------------------
                 Nso       18    10     0     4     4
                 Nmo       18    10     0     4     4
               Ndocc        7     4     0     2     1
               Nsocc        0     0     0     0     0
   ------------------------------------------------------
                       CI Spaces
   ------------------------------------------------------
        Dropped DOCC        0     0     0     0     0
              Active       18    10     0     4     4
        Dropped UOCC        0     0     0     0     0
   ------------------------------------------------------

   ==> Setting up CI strings <==

    There are 31824 alpha and 31824 beta strings
    The CI space requires 253216512 (2.53E+08) determinants and 4 blocks

   ==> Transforming CI integrals <==

	Presorting SO-basis two-electron integrals.
	Sorting File: SO Ints (nn|nn) nbuckets = 1
	Transforming the one-electron integrals and constructing Fock matrices
	Starting first half-transformation.
	Sorting half-transformed integrals.
	First half integral transformation complete.
	Starting second half-transformation.
	Two-electron integral transformation complete.

   ==> Starting CI iterations <==

    H0 Block Eigenvalue = -108.74376370

    Simultaneous Expansion Method (Block Davidson Method)
    Using 1 initial trial vectors

(sem_iter): H0block_->H0b_diag[54][0] - H0block_->H0b_diag[57][0] = 0.216896 - -0.216896 = 0.433791 > 1.0E-8
     Iter   Root       Total Energy       Delta E      C RMS

   @CI  0:     0   -108.743762980239   -1.1307E+02   4.9799E-01  
   @CI  1:     0   -108.830138876139   -8.6376E-02   2.0255E-01  
   @CI  2:     0   -108.838545837745   -8.4070E-03   8.1545E-02  
   @CI  3:     0   -108.839698486183   -1.1526E-03   3.7648E-02  
   @CI  4:     0   -108.839864929660   -1.6644E-04   1.1914E-02  
   @CI  5:     0   -108.839880995597   -1.6066E-05   4.0248E-03  
   @CI  6:     0   -108.839882395163   -1.3996E-06   1.1215E-03  
   @CI  7:     0   -108.839882527840   -1.3268E-07   2.8418E-04  
   @CI  8:     0   -108.839882537234   -9.3940E-09   1.0361E-04  
   @CI  9:     0   -108.839882538864   -1.6303E-09   5.3877E-05 c

   ==> Energetics <==

    SCF energy =         -108.192491684616144
    Total CI energy =    -108.839882538863947

   ==> FCI root 0 information <==

    FCI Root 0 energy =  -108.839882538863947

   The 20 most important determinants:

    *   1    0.158009  (    0, 1756)  1A1X 2A1X 3A1X 4A1X 1B1A 2B1A 1B2B 5A1X 2B2B 
    *   2    0.158009  ( 1756,    0)  1A1X 2A1X 3A1X 4A1X 1B1B 2B1B 1B2A 5A1X 2B2A 
    *   3   -0.158009  ( 7824, 9313)  1A1X 2A1X 3A1X 4A1X 1B1A 2B1B 1B2A 5A1X 2B2B 
    *   4   -0.158009  ( 9313, 7824)  1A1X 2A1X 3A1X 4A1X 1B1B 2B1A 1B2B 5A1X 2B2A 
    *   5    0.158009  ( 7825, 9312)  1A1X 2A1X 3A1X 4A1X 1B1B 2B1A 1B2A 5A1X 2B2B 
    *   6    0.158009  ( 9312, 7825)  1A1X 2A1X 3A1X 4A1X 1B1A 2B1B 1B2B 5A1X 2B2A 
    *   7   -0.158004  (23840,23849)  1A1X 2A1X 3A1X 4A1X 1B1A 2B1A 1B2X 5A1B 6A1B 
    *   8   -0.158004  (23849,23840)  1A1X 2A1X 3A1X 4A1X 1B1B 2B1B 1B2X 5A1A 6A1A 
    *   9    0.158004  ( 7824, 7827)  1A1X 2A1X 3A1X 4A1X 1B1A 2B1B 1B2X 5A1A 6A1B 
    *  10    0.158004  ( 7827, 7824)  1A1X 2A1X 3A1X 4A1X 1B1B 2B1A 1B2X 5A1B 6A1A 
    *  11   -0.158004  ( 7825, 7826)  1A1X 2A1X 3A1X 4A1X 1B1B 2B1A 1B2X 5A1A 6A1B 
    *  12   -0.158004  ( 7826, 7825)  1A1X 2A1X 3A1X 4A1X 1B1A 2B1B 1B2X 5A1B 6A1A 
    *  13    0.158000  (15857,17537)  1A1X 2A1X 3A1X 4A1X 2B1X 1B2B 5A1A 6A1A 2B2B 
    *  14    0.158000  (17537,15857)  1A1X 2A1X 3A1X 4A1X 2B1X 1B2A 5A1B 6A1B 2B2A 
    *  15   -0.158000  ( 7827, 9313)  1A1X 2A1X 3A1X 4A1X 2B1X 1B2A 5A1B 6A1A 2B2B 
    *  16   -0.158000  ( 9313, 7827)  1A1X 2A1X 3A1X 4A1X 2B1X 1B2B 5A1A 6A1B 2B2A 
    *  17    0.158000  ( 7825, 9315)  1A1X 2A1X 3A1X 4A1X 2B1X 1B2A 5A1A 6A1B 2B2B 
    *  18    0.158000  ( 9315, 7825)  1A1X 2A1X 3A1X 4A1X 2B1X 1B2B 5A1B 6A1A 2B2A 
    *  19   -0.158000  (15856,17536)  1A1X 2A1X 3A1X 4A1X 1B1X 1B2B 5A1A 6A1A 2B2B 
    *  20   -0.158000  (17536,15856)  1A1X 2A1X 3A1X 4A1X 1B1X 1B2A 5A1B 6A1B 2B2A 

		 "A good bug is a dead bug" 

			 - Starship Troopers

		 "I didn't write FORTRAN.  That's the problem."

			 - Edward Valeev
Molecule: Setting geometry variable R to 100.000000

*** tstart() called on comp0002
*** at Wed Jul 10 11:27:58 2019

   => Loading Basis Set <=

    Name: 6-31G
    Role: ORBITAL
    Keyword: BASIS
    atoms 1-2 entry N          line   102 file /usr/local/psi4/share/psi4/basis/6-31g.gbs 


         ---------------------------------------------------------
                                   SCF
            by Justin Turney, Rob Parrish, Andy Simmonett
                             and Daniel Smith
                              RHF Reference
                       16 Threads,    500 MiB Core
         ---------------------------------------------------------

  ==> Geometry <==

    Molecular point group: c2v
    Full point group: C_inf_v

    Geometry (in Angstrom), charge = 0, multiplicity = 1:

       Center              X                  Y                   Z               Mass       
    ------------   -----------------  -----------------  -----------------  -----------------
         N          100.000000000000     0.000000000000     0.000000000000    14.003074004780
         N            0.000000000000     0.000000000000     0.000000000000    14.003074004780

  Running in c2v symmetry.

  Rotational constants: A = ************  B =      0.00012  C =      0.00012 [cm^-1]
  Rotational constants: A = ************  B =      3.60906  C =      3.60906 [MHz]
  Nuclear repulsion =    0.259296832209100

  Charge       = 0
  Multiplicity = 1
  Electrons    = 14
  Nalpha       = 7
  Nbeta        = 7

  ==> Algorithm <==

  SCF Algorithm Type is DF.
  DIIS enabled.
  MOM disabled.
  Fractional occupation disabled.
  Guess Type is CORE.
  Energy threshold   = 1.00e-06
  Density threshold  = 1.00e-06
  Integral threshold = 0.00e+00

  ==> Primary Basis <==

  Basis Set: 6-31G
    Blend: 6-31G
    Number of shells: 10
    Number of basis function: 18
    Number of Cartesian functions: 18
    Spherical Harmonics?: false
    Max angular momentum: 1

   => Loading Basis Set <=

    Name: (6-31G AUX)
    Role: JKFIT
    Keyword: DF_BASIS_SCF
    atoms 1-2 entry N          line   171 file /usr/local/psi4/share/psi4/basis/cc-pvdz-jkfit.gbs 

  ==> Pre-Iterations <==

   -------------------------------------------------------
    Irrep   Nso     Nmo     Nalpha   Nbeta   Ndocc  Nsocc
   -------------------------------------------------------
     A1        10      10       0       0       0       0
     A2         0       0       0       0       0       0
     B1         4       4       0       0       0       0
     B2         4       4       0       0       0       0
   -------------------------------------------------------
    Total      18      18       7       7       7       0
   -------------------------------------------------------

  ==> Integral Setup <==

  ==> DiskDFJK: Density-Fitted J/K Matrices <==

    J tasked:                  Yes
    K tasked:                  Yes
    wK tasked:                  No
    OpenMP threads:             16
    Integrals threads:          16
    Memory (MB):               375
    Algorithm:                Core
    Integral Cache:           NONE
    Schwarz Cutoff:          1E-12
    Fitting Condition:       1E-12

   => Auxiliary Basis Set <=

  Basis Set: (6-31G AUX)
    Blend: CC-PVDZ-JKFIT
    Number of shells: 48
    Number of basis function: 162
    Number of Cartesian functions: 162
    Spherical Harmonics?: false
    Max angular momentum: 3

  Minimum eigenvalue in the overlap matrix is 2.2275057150E-01.
  Using Symmetric Orthogonalization.

  SCF Guess: Core (One-Electron) Hamiltonian.

  ==> Iterations <==

                           Total Energy        Delta E     RMS |[F,P]|

    Occupation by irrep:
             A1    A2    B1    B2 
    DOCC [     5,    0,    1,    1 ]

   @DF-RHF iter   1:  -104.13260977977204   -1.04133e+02   1.70730e-01 
   @DF-RHF iter   2:  -102.97790635129026    1.15470e+00   1.16788e-01 DIIS
   @DF-RHF iter   3:  -102.30204048040069    6.75866e-01   1.57555e-01 DIIS
   @DF-RHF iter   4:  -102.98385515224790   -6.81815e-01   1.24998e-01 DIIS
   @DF-RHF iter   5:   -89.44566320833178    1.35382e+01   1.89534e-01 DIIS
   @DF-RHF iter   6:   -89.43479198173021    1.08712e-02   1.89609e-01 DIIS
   @DF-RHF iter   7:   -89.58181798006883   -1.47026e-01   1.88688e-01 DIIS
   @DF-RHF iter   8:   -89.57912679457175    2.69119e-03   1.88684e-01 DIIS
   @DF-RHF iter   9:   -89.39581017912718    1.83317e-01   1.92395e-01 DIIS
   @DF-RHF iter  10:   -88.48906418156945    9.06746e-01   1.93255e-01 DIIS
   @DF-RHF iter  11:   -88.48091456372536    8.14962e-03   1.93805e-01 DIIS
   @DF-RHF iter  12:   -89.91209451726527   -1.43118e+00   1.85245e-01 DIIS
   @DF-RHF iter  13:   -89.77732408115116    1.34770e-01   1.89808e-01 DIIS
   @DF-RHF iter  14:  -102.11009488926685   -1.23328e+01   1.72210e-01 DIIS
   @DF-RHF iter  15:  -102.89004060444350   -7.79946e-01   1.27557e-01 DIIS
   @DF-RHF iter  16:  -101.02973359199457    1.86031e+00   2.11059e-01 DIIS
    Occupation by irrep:
             A1    A2    B1    B2 
    DOCC [     4,    0,    2,    1 ]

   @DF-RHF iter  17:  -102.40090653349378   -1.37117e+00   1.54306e-01 DIIS
    Occupation by irrep:
             A1    A2    B1    B2 
    DOCC [     5,    0,    1,    1 ]

   @DF-RHF iter  18:   -89.53736605152432    1.28635e+01   1.88353e-01 DIIS
   @DF-RHF iter  19:  -101.34117260692767   -1.18038e+01   1.89817e-01 DIIS
   @DF-RHF iter  20:  -102.94343252955166   -1.60226e+00   1.28062e-01 DIIS
   @DF-RHF iter  21:   -89.76820674187563    1.31752e+01   1.87005e-01 DIIS
   @DF-RHF iter  22:   -89.39661215794835    3.71595e-01   1.89929e-01 DIIS
   @DF-RHF iter  23:  -102.18334630131858   -1.27867e+01   1.62896e-01 DIIS
   @DF-RHF iter  24:   -88.34903563153917    1.38343e+01   1.99030e-01 DIIS
   @DF-RHF iter  25:   -88.89889902609286   -5.49863e-01   1.91820e-01 DIIS
   @DF-RHF iter  26:   -89.26581951874306   -3.66920e-01   1.90495e-01 DIIS
   @DF-RHF iter  27:   -89.61496424787555   -3.49145e-01   1.95793e-01 DIIS
   @DF-RHF iter  28:   -89.65477259230389   -3.98083e-02   1.87883e-01 DIIS
   @DF-RHF iter  29:   -89.64695887049933    7.81372e-03   1.95504e-01 DIIS
   @DF-RHF iter  30:   -89.64677645116780    1.82419e-04   1.87954e-01 DIIS
   @DF-RHF iter  31:   -89.64668090609167    9.55451e-05   1.87955e-01 DIIS
   @DF-RHF iter  32:   -89.64667713503900    3.77105e-06   1.87955e-01 DIIS
   @DF-RHF iter  33:   -89.64667599027651    1.14476e-06   1.87955e-01 DIIS
   @DF-RHF iter  34:   -89.64667592825714    6.20194e-08   1.87955e-01 DIIS
   @DF-RHF iter  35:   -89.64667591427141    1.39857e-08   1.87955e-01 DIIS
   @DF-RHF iter  36:   -89.64667591362218    6.49237e-10   1.95506e-01 DIIS
   @DF-RHF iter  37:   -89.64667591338414    2.38032e-10   1.87955e-01 DIIS
   @DF-RHF iter  38:   -89.64667591331657    6.75726e-11   1.87955e-01 DIIS
   @DF-RHF iter  39:   -89.64667591320818    1.08386e-10   2.04047e-01 DIIS
   @DF-RHF iter  40:   -89.64667591313793    7.02585e-11   1.95506e-01 DIIS
   @DF-RHF iter  41:   -89.64667591322444   -8.65157e-11   1.90869e-01 DIIS
   @DF-RHF iter  42:   -89.64667591326882   -4.43805e-11   1.87955e-01 DIIS
   @DF-RHF iter  43:   -89.64667591308690    1.81927e-10   1.87955e-01 DIIS
   @DF-RHF iter  44:   -89.64667591325556   -1.68669e-10   1.87955e-01 DIIS
   @DF-RHF iter  45:   -89.64667591332149   -6.59242e-11   1.87955e-01 DIIS
   @DF-RHF iter  46:   -89.64667591306865    2.52840e-10   1.87955e-01 DIIS
   @DF-RHF iter  47:   -89.64667591324300   -1.74353e-10   1.90869e-01 DIIS
   @DF-RHF iter  48:   -89.64667591337204   -1.29035e-10   1.87955e-01 DIIS
   @DF-RHF iter  49:   -89.64667591335507    1.69678e-11   1.87955e-01 DIIS
   @DF-RHF iter  50:   -89.64667591329206    6.30109e-11   1.87955e-01 DIIS
   @DF-RHF iter  51:   -89.64667591311554    1.76513e-10   1.87955e-01 DIIS
   @DF-RHF iter  52:   -89.64667591323598   -1.20437e-10   1.90869e-01 DIIS
   @DF-RHF iter  53:   -89.64667591311998    1.16003e-10   1.95506e-01 DIIS
   @DF-RHF iter  54:   -89.64667591320089   -8.09166e-11   1.87955e-01 DIIS
   @DF-RHF iter  55:   -89.64667591320119   -2.98428e-13   2.25137e-01 DIIS
   @DF-RHF iter  56:   -89.64667591327239   -7.11964e-11   2.04047e-01 DIIS
   @DF-RHF iter  57:   -89.64667591323936    3.30260e-11   1.95506e-01 DIIS
   @DF-RHF iter  58:   -89.64667591325470   -1.53335e-11   1.87955e-01 DIIS
   @DF-RHF iter  59:   -89.64667591330473   -5.00364e-11   1.90869e-01 DIIS
   @DF-RHF iter  60:   -89.64667591326163    4.31015e-11   2.25137e-01 DIIS
   @DF-RHF iter  61:   -89.64667591326321   -1.57740e-12   1.87955e-01 DIIS
   @DF-RHF iter  62:   -89.64667591305633    2.06882e-10   2.07792e-01 DIIS
   @DF-RHF iter  63:   -89.64667591330857   -2.52243e-10   2.04047e-01 DIIS
   @DF-RHF iter  64:   -89.64667591336654   -5.79661e-11   1.87955e-01 DIIS
   @DF-RHF iter  65:   -89.64667591329372    7.28164e-11   2.04047e-01 DIIS
   @DF-RHF iter  66:   -89.64667591313923    1.54486e-10   2.30197e-01 DIIS
   @DF-RHF iter  67:   -89.64667591343655   -2.97320e-10   1.87955e-01 DIIS
   @DF-RHF iter  68:   -89.64667591319737    2.39183e-10   1.87955e-01 DIIS
   @DF-RHF iter  69:   -89.64667591331440   -1.17026e-10   1.87955e-01 DIIS
   @DF-RHF iter  70:   -89.64667591328153    3.28697e-11   1.98792e-01 DIIS
   @DF-RHF iter  71:   -89.64667591330738   -2.58495e-11   1.95506e-01 DIIS
   @DF-RHF iter  72:   -89.64667591331053   -3.15481e-12   1.87955e-01 DIIS
   @DF-RHF iter  73:   -89.64667591335296   -4.24336e-11   1.95506e-01 DIIS
   @DF-RHF iter  74:   -89.64667591326580    8.71694e-11   1.95506e-01 DIIS
   @DF-RHF iter  75:   -89.64667591330843   -4.26326e-11   1.95506e-01 DIIS
   @DF-RHF iter  76:   -89.64667591330826    1.70530e-13   1.95506e-01 DIIS
   @DF-RHF iter  77:   -89.64667591322160    8.66578e-11   2.02250e-01 DIIS
   @DF-RHF iter  78:   -89.64667591316990    5.16991e-11   1.87955e-01 DIIS
   @DF-RHF iter  79:   -89.64667591344173   -2.71825e-10   1.87955e-01 DIIS
   @DF-RHF iter  80:   -89.64667591339037    5.13580e-11   1.98792e-01 DIIS
   @DF-RHF iter  81:   -89.64667591307888    3.11488e-10   1.87955e-01 DIIS
   @DF-RHF iter  82:   -89.64667591329007   -2.11188e-10   1.90869e-01 DIIS
   @DF-RHF iter  83:   -89.64667591316748    1.22583e-10   1.95506e-01 DIIS
   @DF-RHF iter  84:   -89.64667591328978   -1.22299e-10   1.87955e-01 DIIS
   @DF-RHF iter  85:   -89.64667591327522    1.45661e-11   1.87955e-01 DIIS
   @DF-RHF iter  86:   -89.64667591319854    7.66818e-11   1.87955e-01 DIIS
   @DF-RHF iter  87:   -89.64667591321890   -2.03642e-11   1.87955e-01 DIIS
   @DF-RHF iter  88:   -89.64667591328585   -6.69473e-11   2.04047e-01 DIIS
   @DF-RHF iter  89:   -89.64667591335017   -6.43183e-11   1.95506e-01 DIIS
   @DF-RHF iter  90:   -89.64667591323321    1.16955e-10   1.87955e-01 DIIS
   @DF-RHF iter  91:   -89.64667591336456   -1.31351e-10   1.87955e-01 DIIS
   @DF-RHF iter  92:   -89.64667591341542   -5.08606e-11   1.87955e-01 DIIS
   @DF-RHF iter  93:   -89.64667591315603    2.59391e-10   1.87955e-01 DIIS
   @DF-RHF iter  94:   -89.64667591337553   -2.19501e-10   1.87955e-01 DIIS
   @DF-RHF iter  95:   -89.64667591307507    3.00460e-10   1.87955e-01 DIIS
   @DF-RHF iter  96:   -89.64667591321812   -1.43046e-10   1.87955e-01 DIIS
   @DF-RHF iter  97:   -89.64667591322876   -1.06439e-11   1.87955e-01 DIIS
   @DF-RHF iter  98:   -89.64667591332304   -9.42748e-11   1.87955e-01 DIIS
   @DF-RHF iter  99:   -89.64667591336585   -4.28173e-11   1.87955e-01 DIIS
   @DF-RHF iter 100:   -89.64667591312548    2.40377e-10   1.87955e-01 DIIS

  ==> Post-Iterations <==

  Failed to converge.
Iterations did not converge.
Traceback (most recent call last):
  File "/usr/local/psi4/bin/psi4", line 269, in <module>
    exec(content)
  File "<string>", line 32, in <module>
  File "/usr/local/psi4/lib/psi4/driver/driver.py", line 492, in energy
    wfn = procedures['energy'][lowername](lowername, molecule=molecule, **kwargs)
  File "/usr/local/psi4/lib/psi4/driver/procrouting/proc.py", line 2009, in run_scf
    scf_wfn = scf_helper(name, post_scf=False, **kwargs)
  File "/usr/local/psi4/lib/psi4/driver/procrouting/proc.py", line 1363, in scf_helper
    e_scf = scf_wfn.compute_energy()

RuntimeError: 
Fatal Error: Iterations did not converge.
Error occurred in file: /home/maho/psi4/psi4/src/psi4/libpsi4util/process.cc on line: 112
The most recent 5 function calls were:

psi::PsiException::PsiException(std::__cxx11::basic_string<char, std::char_traits<char>, std::allocator<char> >, char const*, int)


    Psi4 stopped on: Wednesday, 10 July 2019 11:28AM
    Psi4 wall time for execution: 23:54:34.95

*** Psi4 encountered an error. Buy a developer more coffee!
*** Resources and help at github.com/psi4/psi4.
