
    -----------------------------------------------------------------------
          Psi4: An Open-Source Ab Initio Electronic Structure Package
                               Psi4 1.3.2 release

                         Git: Rev {HEAD} ecbda83 


    R. M. Parrish, L. A. Burns, D. G. A. Smith, A. C. Simmonett,
    A. E. DePrince III, E. G. Hohenstein, U. Bozkaya, A. Yu. Sokolov,
    R. Di Remigio, R. M. Richard, J. F. Gonthier, A. M. James,
    H. R. McAlexander, A. Kumar, M. Saitow, X. Wang, B. P. Pritchard,
    P. Verma, H. F. Schaefer III, K. Patkowski, R. A. King, E. F. Valeev,
    F. A. Evangelista, J. M. Turney, T. D. Crawford, and C. D. Sherrill,
    J. Chem. Theory Comput. 13(7) pp 3185--3197 (2017).
    (doi: 10.1021/acs.jctc.7b00174)


                         Additional Contributions by
    P. Kraus, H. Kruse, M. H. Lechner, M. C. Schieber, R. A. Shaw,
    A. Alenaizan, R. Galvelis, Z. L. Glick, S. Lehtola, and J. P. Misiewicz

    -----------------------------------------------------------------------


    Psi4 started on: Monday, 08 July 2019 07:19AM

    Process ID: 53162
    Host:       comp0002
    PSIDATADIR: /home/maho/psi4conda/share/psi4
    Memory:     500.0 MiB
    Threads:    1
    
  ==> Input File <==

--------------------------------------------------------------------------
#! 6-31G N2 FullCI PES

molecule n2 {
N          R    0.0  0.0
N          0.0  0.0  0.0
}

set {
  basis 6-31g
}

Rvals=[0.5, 0.6, 0.7, 0.8, 0.9, 1.0, 1.1, 1.2, 1.3, 1.4, 1.5, 1.6, 1.7, 1.8, 1.9, 2.0]
Rvals2=[3.0, 4.0]

for R in Rvals:
   n2.R = R
   hfene=energy('hf')
   ccsdene=energy('ccsd(t)')
   mp2ene=energy('mp2')
   print ('%f %f %f %f' % ( R, hfene, mp2ene, ccsdene) )
   clean()  


for R in Rvals2:
   n2.R = R
   hfene=energy('hf')
   mp2ene=energy('mp2')
   print ('%f %f %f' % ( R, hfene, mp2ene) )
   clean()  
--------------------------------------------------------------------------
Molecule: geometry: Molecule is not complete, please use 'update_geometry'
                    once all variables are set.

Molecule: Setting a variable updates the molecular geometry, for
          cartesian molecules this can lead to surprising behaviour.
          Freezing COM and orientation to prevent this.

Molecule: Setting geometry variable R to 0.500000

*** tstart() called on comp0002
*** at Mon Jul  8 07:19:22 2019

   => Loading Basis Set <=

    Name: 6-31G
    Role: ORBITAL
    Keyword: BASIS
    atoms 1-2 entry N          line   102 file /home/maho/psi4conda/share/psi4/basis/6-31g.gbs 


         ---------------------------------------------------------
                                   SCF
               by Justin Turney, Rob Parrish, Andy Simmonett
                          and Daniel G. A. Smith
                              RHF Reference
                        1 Threads,    500 MiB Core
         ---------------------------------------------------------

  ==> Geometry <==

    Molecular point group: c2v
    Full point group: C_inf_v

    Geometry (in Angstrom), charge = 0, multiplicity = 1:

       Center              X                  Y                   Z               Mass       
    ------------   -----------------  -----------------  -----------------  -----------------
         N            0.500000000000     0.000000000000     0.000000000000    14.003074004430
         N            0.000000000000     0.000000000000     0.000000000000    14.003074004430

  Running in c2v symmetry.

  Rotational constants: A = ************  B =      4.81541  C =      4.81541 [cm^-1]
  Rotational constants: A = ************  B = 144362.30464  C = 144362.30464 [MHz]
  Nuclear repulsion =   51.859366645660003

  Charge       = 0
  Multiplicity = 1
  Electrons    = 14
  Nalpha       = 7
  Nbeta        = 7

  ==> Algorithm <==

  SCF Algorithm Type is DF.
  DIIS enabled.
  MOM disabled.
  Fractional occupation disabled.
  Guess Type is SAD.
  Energy threshold   = 1.00e-06
  Density threshold  = 1.00e-06
  Integral threshold = 0.00e+00

  ==> Primary Basis <==

  Basis Set: 6-31G
    Blend: 6-31G
    Number of shells: 10
    Number of basis function: 18
    Number of Cartesian functions: 18
    Spherical Harmonics?: false
    Max angular momentum: 1

   => Loading Basis Set <=

    Name: (6-31G AUX)
    Role: JKFIT
    Keyword: DF_BASIS_SCF
    atoms 1-2 entry N          line   171 file /home/maho/psi4conda/share/psi4/basis/cc-pvdz-jkfit.gbs 

  ==> Pre-Iterations <==

   -------------------------------------------------------
    Irrep   Nso     Nmo     Nalpha   Nbeta   Ndocc  Nsocc
   -------------------------------------------------------
     A1        10      10       0       0       0       0
     A2         0       0       0       0       0       0
     B1         4       4       0       0       0       0
     B2         4       4       0       0       0       0
   -------------------------------------------------------
    Total      18      18       7       7       7       0
   -------------------------------------------------------

  ==> Integral Setup <==

  DFHelper Memory: AOs need 0.001 GiB; user supplied 0.366 GiB. Using in-core AOs.

  ==> MemDFJK: Density-Fitted J/K Matrices <==

    J tasked:                   Yes
    K tasked:                   Yes
    wK tasked:                   No
    OpenMP threads:               1
    Memory [MiB]:               375
    Algorithm:                 Core
    Schwarz Cutoff:           1E-12
    Mask sparsity (%):       0.0000
    Fitting Condition:        1E-10

   => Auxiliary Basis Set <=

  Basis Set: (6-31G AUX)
    Blend: CC-PVDZ-JKFIT
    Number of shells: 48
    Number of basis function: 162
    Number of Cartesian functions: 162
    Spherical Harmonics?: false
    Max angular momentum: 3

  Minimum eigenvalue in the overlap matrix is 8.6499037986E-05.
  Using Symmetric Orthogonalization.

  SCF Guess: Superposition of Atomic Densities via on-the-fly atomic UHF.

  ==> Iterations <==

                           Total Energy        Delta E     RMS |[F,P]|

   @DF-RHF iter SAD:  -106.41855244406831   -1.06419e+02   0.00000e+00 
   @DF-RHF iter   1:  -102.87799455669177    3.54056e+00   3.18400e-02 DIIS
   @DF-RHF iter   2:  -102.94966176784612   -7.16672e-02   6.15601e-03 DIIS
   @DF-RHF iter   3:  -102.95264671470429   -2.98495e-03   1.62913e-03 DIIS
   @DF-RHF iter   4:  -102.95295830103244   -3.11586e-04   1.36353e-04 DIIS
   @DF-RHF iter   5:  -102.95296000182266   -1.70079e-06   1.57972e-05 DIIS
   @DF-RHF iter   6:  -102.95296002957701   -2.77544e-08   1.14497e-06 DIIS
   @DF-RHF iter   7:  -102.95296002969167   -1.14653e-10   1.35307e-07 DIIS
  Energy and wave function converged.


  ==> Post-Iterations <==

    Orbital Energies [Eh]
    ---------------------

    Doubly Occupied:                                                      

       1A1   -16.528397     2A1   -15.835366     3A1    -1.471182  
       1B2    -1.190891     1B1    -1.190891     4A1    -0.544169  
       5A1    -0.522554  

    Virtual:                                                              

       2B1     0.526577     2B2     0.526577     3B2     0.567627  
       3B1     0.567627     6A1     0.664595     7A1     0.709841  
       8A1     1.005831     9A1     1.507031     4B1     1.639737  
       4B2     1.639737    10A1     9.841642  

    Final Occupation by Irrep:
             A1    A2    B1    B2 
    DOCC [     5,    0,    1,    1 ]

  @DF-RHF Final Energy:  -102.95296002969167

   => Energetics <=

    Nuclear Repulsion Energy =             51.8593666456600033
    One-Electron Energy =                -235.0577574361765016
    Two-Electron Energy =                  80.2454307608248314
    Total Energy =                       -102.9529600296916669

Computation Completed


Properties will be evaluated at   0.000000,   0.000000,   0.000000 [a0]

Properties computed using the SCF density matrix

  Nuclear Dipole Moment: [e a0]
     X:     6.6140      Y:     0.0000      Z:     0.0000

  Electronic Dipole Moment: [e a0]
     X:    -6.6140      Y:     0.0000      Z:     0.0000

  Dipole Moment: [e a0]
     X:    -0.0000      Y:     0.0000      Z:     0.0000     Total:     0.0000

  Dipole Moment: [D]
     X:    -0.0000      Y:     0.0000      Z:     0.0000     Total:     0.0000


*** tstop() called on comp0002 at Mon Jul  8 07:19:23 2019
Module time:
	user time   =       0.55 seconds =       0.01 minutes
	system time =       0.02 seconds =       0.00 minutes
	total time  =          1 seconds =       0.02 minutes
Total time:
	user time   =       0.55 seconds =       0.01 minutes
	system time =       0.02 seconds =       0.00 minutes
	total time  =          1 seconds =       0.02 minutes

*** tstart() called on comp0002
*** at Mon Jul  8 07:19:23 2019

   => Loading Basis Set <=

    Name: 6-31G
    Role: ORBITAL
    Keyword: BASIS
    atoms 1-2 entry N          line   102 file /home/maho/psi4conda/share/psi4/basis/6-31g.gbs 


         ---------------------------------------------------------
                                   SCF
               by Justin Turney, Rob Parrish, Andy Simmonett
                          and Daniel G. A. Smith
                              RHF Reference
                        1 Threads,    500 MiB Core
         ---------------------------------------------------------

  ==> Geometry <==

    Molecular point group: c2v
    Full point group: C_inf_v

    Geometry (in Angstrom), charge = 0, multiplicity = 1:

       Center              X                  Y                   Z               Mass       
    ------------   -----------------  -----------------  -----------------  -----------------
         N            0.500000000000     0.000000000000     0.000000000000    14.003074004430
         N            0.000000000000     0.000000000000     0.000000000000    14.003074004430

  Running in c2v symmetry.

  Rotational constants: A = ************  B =      4.81541  C =      4.81541 [cm^-1]
  Rotational constants: A = ************  B = 144362.30464  C = 144362.30464 [MHz]
  Nuclear repulsion =   51.859366645660003

  Charge       = 0
  Multiplicity = 1
  Electrons    = 14
  Nalpha       = 7
  Nbeta        = 7

  ==> Algorithm <==

  SCF Algorithm Type is PK.
  DIIS enabled.
  MOM disabled.
  Fractional occupation disabled.
  Guess Type is SAD.
  Energy threshold   = 1.00e-08
  Density threshold  = 1.00e-08
  Integral threshold = 0.00e+00

  ==> Primary Basis <==

  Basis Set: 6-31G
    Blend: 6-31G
    Number of shells: 10
    Number of basis function: 18
    Number of Cartesian functions: 18
    Spherical Harmonics?: false
    Max angular momentum: 1

  ==> Pre-Iterations <==

   -------------------------------------------------------
    Irrep   Nso     Nmo     Nalpha   Nbeta   Ndocc  Nsocc
   -------------------------------------------------------
     A1        10      10       0       0       0       0
     A2         0       0       0       0       0       0
     B1         4       4       0       0       0       0
     B2         4       4       0       0       0       0
   -------------------------------------------------------
    Total      18      18       7       7       7       0
   -------------------------------------------------------

  ==> Integral Setup <==

  Using in-core PK algorithm.
   Calculation information:
      Number of atoms:                   2
      Number of AO shells:              10
      Number of primitives:             28
      Number of atomic orbitals:        18
      Number of basis functions:        18

      Integral cutoff                 1.00e-12
      Number of threads:                 1

  Performing in-core PK
  Using 29412 doubles for integral storage.
  We computed 1540 shell quartets total.
  Whereas there are 1540 unique shell quartets.

  ==> DiskJK: Disk-Based J/K Matrices <==

    J tasked:                  Yes
    K tasked:                  Yes
    wK tasked:                  No
    Memory [MiB]:              375
    Schwarz Cutoff:          1E-12

    OpenMP threads:              1

  Minimum eigenvalue in the overlap matrix is 8.6499037986E-05.
  Using Symmetric Orthogonalization.

  SCF Guess: Superposition of Atomic Densities via on-the-fly atomic UHF.

  ==> Iterations <==

                        Total Energy        Delta E     RMS |[F,P]|

   @RHF iter SAD:  -106.41869512192098   -1.06419e+02   0.00000e+00 
   @RHF iter   1:  -102.87826359777897    3.54043e+00   3.18447e-02 DIIS
   @RHF iter   2:  -102.94994047754729   -7.16769e-02   6.15576e-03 DIIS
   @RHF iter   3:  -102.95292556827548   -2.98509e-03   1.62914e-03 DIIS
   @RHF iter   4:  -102.95323714287844   -3.11575e-04   1.36365e-04 DIIS
   @RHF iter   5:  -102.95323884399775   -1.70112e-06   1.57985e-05 DIIS
   @RHF iter   6:  -102.95323887175796   -2.77602e-08   1.14466e-06 DIIS
   @RHF iter   7:  -102.95323887187240   -1.14440e-10   1.35275e-07 DIIS
   @RHF iter   8:  -102.95323887187465   -2.24532e-12   2.72342e-09 DIIS
  Energy and wave function converged.


  ==> Post-Iterations <==

    Orbital Energies [Eh]
    ---------------------

    Doubly Occupied:                                                      

       1A1   -16.528361     2A1   -15.835299     3A1    -1.471148  
       1B2    -1.190962     1B1    -1.190962     4A1    -0.544148  
       5A1    -0.522555  

    Virtual:                                                              

       2B1     0.526561     2B2     0.526561     3B2     0.567577  
       3B1     0.567577     6A1     0.664618     7A1     0.709839  
       8A1     1.005832     9A1     1.507046     4B1     1.639676  
       4B2     1.639676    10A1     9.841678  

    Final Occupation by Irrep:
             A1    A2    B1    B2 
    DOCC [     5,    0,    1,    1 ]

  @RHF Final Energy:  -102.95323887187465

   => Energetics <=

    Nuclear Repulsion Energy =             51.8593666456600033
    One-Electron Energy =                -235.0583400064925002
    Two-Electron Energy =                  80.2457344889578508
    Total Energy =                       -102.9532388718746461

Computation Completed


Properties will be evaluated at   0.000000,   0.000000,   0.000000 [a0]

Properties computed using the SCF density matrix

  Nuclear Dipole Moment: [e a0]
     X:     6.6140      Y:     0.0000      Z:     0.0000

  Electronic Dipole Moment: [e a0]
     X:    -6.6140      Y:     0.0000      Z:     0.0000

  Dipole Moment: [e a0]
     X:    -0.0000      Y:     0.0000      Z:     0.0000     Total:     0.0000

  Dipole Moment: [D]
     X:    -0.0000      Y:     0.0000      Z:     0.0000     Total:     0.0000


*** tstop() called on comp0002 at Mon Jul  8 07:19:23 2019
Module time:
	user time   =       0.39 seconds =       0.01 minutes
	system time =       0.00 seconds =       0.00 minutes
	total time  =          0 seconds =       0.00 minutes
Total time:
	user time   =       0.95 seconds =       0.02 minutes
	system time =       0.02 seconds =       0.00 minutes
	total time  =          1 seconds =       0.02 minutes
 MINTS: Wrapper to libmints.
   by Justin Turney

   Calculation information:
      Number of threads:                 1
      Number of atoms:                   2
      Number of AO shells:              10
      Number of SO shells:              10
      Number of primitives:             28
      Number of atomic orbitals:        18
      Number of basis functions:        18

      Number of irreps:                  4
      Integral cutoff                 0.00e+00
      Number of functions per irrep: [  10    0    4    4 ]

 OEINTS: Overlap, kinetic, potential, dipole, and quadrupole integrals
         stored in file 35.

      Computing two-electron integrals...done
      Computed 4350 non-zero two-electron integrals.
        Stored in file 33.


*** tstart() called on comp0002
*** at Mon Jul  8 07:19:23 2019


	Wfn Parameters:
	--------------------
	Wavefunction         = CCSD_T
	Number of irreps     = 4
	Number of MOs        = 18
	Number of active MOs = 18
	AO-Basis             = NONE
	Semicanonical        = false
	Reference            = RHF
	Print Level          = 1

	IRREP	# MOs	# FZDC	# DOCC	# SOCC	# VIRT	# FZVR
	-----	-----	------	------	------	------	------
	 A1	   10	    0	    5	    0	    5	    0
	 A2	   0	    0	    0	    0	    0	    0
	 B1	   4	    0	    1	    0	    3	    0
	 B2	   4	    0	    1	    0	    3	    0
	Transforming integrals...
	IWL integrals will be deleted.
	(OO|OO)...
	Presorting SO-basis two-electron integrals.
	Sorting File: SO Ints (nn|nn) nbuckets = 1
	Transforming the one-electron integrals and constructing Fock matrices
	Starting first half-transformation.
	Sorting half-transformed integrals.
	First half integral transformation complete.
	Starting second half-transformation.
	Two-electron integral transformation complete.
	(OO|OV)...
	Starting second half-transformation.
	Two-electron integral transformation complete.
	(OO|VV)...
	Starting second half-transformation.
	Two-electron integral transformation complete.
	(OV|OO)...
	Starting first half-transformation.
	Sorting half-transformed integrals.
	First half integral transformation complete.
	Starting second half-transformation.
	Two-electron integral transformation complete.
	(OV|OV)...
	Starting second half-transformation.
	Two-electron integral transformation complete.
	(OV|VV)...
	Starting second half-transformation.
	Two-electron integral transformation complete.
	(VV|OO)...
	Starting first half-transformation.
	Sorting half-transformed integrals.
	First half integral transformation complete.
	Starting second half-transformation.
	Two-electron integral transformation complete.
	(VV|OV)...
	Starting second half-transformation.
	Two-electron integral transformation complete.
	(VV|VV)...
	Starting second half-transformation.
	Two-electron integral transformation complete.
	Frozen core energy     =      0.00000000000000

	Size of irrep 0 of <ab|cd> integrals:      0.002 (MW) /      0.015 (MB)
	Size of irrep 1 of <ab|cd> integrals:      0.000 (MW) /      0.003 (MB)
	Size of irrep 2 of <ab|cd> integrals:      0.001 (MW) /      0.007 (MB)
	Size of irrep 3 of <ab|cd> integrals:      0.001 (MW) /      0.007 (MB)
	Total:                                     0.004 (MW) /      0.032 (MB)

	Size of irrep 0 of <ia|bc> integrals:      0.001 (MW) /      0.011 (MB)
	Size of irrep 1 of <ia|bc> integrals:      0.000 (MW) /      0.001 (MB)
	Size of irrep 2 of <ia|bc> integrals:      0.001 (MW) /      0.005 (MB)
	Size of irrep 3 of <ia|bc> integrals:      0.001 (MW) /      0.005 (MB)
	Total:                                     0.003 (MW) /      0.021 (MB)

	Size of irrep 0 of tijab amplitudes:       0.001 (MW) /      0.009 (MB)
	Size of irrep 1 of tijab amplitudes:       0.000 (MW) /      0.000 (MB)
	Size of irrep 2 of tijab amplitudes:       0.000 (MW) /      0.002 (MB)
	Size of irrep 3 of tijab amplitudes:       0.000 (MW) /      0.002 (MB)
	Total:                                     0.002 (MW) /      0.014 (MB)

	Nuclear Rep. energy          =     51.85936664566000
	SCF energy                   =   -102.95323887187465
	One-electron energy          =   -235.05833999399403
	Two-electron energy          =     80.24573447645936
	Reference energy             =   -102.95323887187467

*** tstop() called on comp0002 at Mon Jul  8 07:19:23 2019
Module time:
	user time   =       0.01 seconds =       0.00 minutes
	system time =       0.03 seconds =       0.00 minutes
	total time  =          0 seconds =       0.00 minutes
Total time:
	user time   =       0.99 seconds =       0.02 minutes
	system time =       0.05 seconds =       0.00 minutes
	total time  =          1 seconds =       0.02 minutes
            **************************
            *                        *
            *        CCENERGY        *
            *                        *
            **************************

    Nuclear Rep. energy (wfn)     =   51.859366645660003
    SCF energy          (wfn)     = -102.953238871874646
    Reference energy    (file100) = -102.953238871874674

    Input parameters:
    -----------------
    Wave function   =     CCSD_T
    Reference wfn   =     RHF
    Brueckner       =     No
    Memory (Mbytes) =     524.3
    Maxiter         =     50
    R_Convergence   =     1.0e-07
    E_Convergence   =     1.0e-06
    Restart         =     Yes
    DIIS            =     Yes
    AO Basis        =     NONE
    ABCD            =     NEW
    Cache Level     =     2
    Cache Type      =     LOW
    Print Level     =     1
    Num. of threads =     1
    # Amps to Print =     10
    Print MP2 Amps? =     No
    Analyze T2 Amps =     No
    Print Pair Ener =     No
    Local CC        =     No
    SCS-MP2         =     False
    SCSN-MP2        =     False
    SCS-CCSD        =     False

MP2 correlation energy -0.0917288684464373
                Solving CC Amplitude Equations
                ------------------------------
  Iter             Energy              RMS        T1Diag      D1Diag    New D1Diag    D2Diag
  ----     ---------------------    ---------   ----------  ----------  ----------   --------
     0        -0.091728868446437    0.000e+00    0.000000    0.000000    0.000000    0.074233
     1        -0.100429704225349    2.488e-02    0.003292    0.009109    0.009109    0.088072
     2        -0.103124746784021    7.520e-03    0.004453    0.012846    0.012846    0.093448
     3        -0.103232025717018    1.301e-03    0.004712    0.013842    0.013842    0.093998
     4        -0.103232750029271    2.425e-04    0.004744    0.014006    0.014006    0.094027
     5        -0.103232288633296    3.932e-05    0.004749    0.014038    0.014038    0.094020
     6        -0.103232051944898    6.316e-06    0.004750    0.014044    0.014044    0.094019
     7        -0.103232018376430    8.936e-07    0.004751    0.014045    0.014045    0.094019
     8        -0.103232015307092    2.184e-07    0.004751    0.014045    0.014045    0.094019
     9        -0.103232015570657    3.109e-08    0.004751    0.014045    0.014045    0.094019

    Iterations converged.


    Largest TIA Amplitudes:
              4   1        -0.0134828502
              3   0        -0.0094698578
              2   2        -0.0034034997
              2   1        -0.0032031479
              4   2         0.0030541082
              5   6        -0.0024051938
              6   9        -0.0024051938
              3   3        -0.0011427322
              3   4         0.0006339362
              0   2        -0.0001379015

    Largest TIjAb Amplitudes:
      4   4   1   1        -0.0320418921
      3   3   5   5        -0.0312667569
      3   3   8   8        -0.0312667569
      5   5   7   7        -0.0309265453
      6   6  10  10        -0.0309265453
      3   4   0   1        -0.0248069255
      4   3   1   0        -0.0248069255
      3   3   0   0        -0.0229568581
      5   6   7  10        -0.0219904627
      6   5  10   7        -0.0219904627

    SCF energy       (wfn)                    = -102.953238871874646
    Reference energy (file100)                = -102.953238871874674

    Opposite-spin MP2 correlation energy      =   -0.072503579706099
    Same-spin MP2 correlation energy          =   -0.019225288740339
    MP2 correlation energy                    =   -0.091728868446437
      * MP2 total energy                      = -103.044967740321113

    Opposite-spin CCSD correlation energy     =   -0.084304629451889
    Same-spin CCSD correlation energy         =   -0.018927386118772
    CCSD correlation energy                   =   -0.103232015570657
      * CCSD total energy                     = -103.056470887445329

            **************************
            *                        *
            *        CCTRIPLES       *
            *                        *
            **************************


    Wave function   =    CCSD_T
    Reference wfn   =      RHF

    Nuclear Rep. energy (wfn)                =   51.859366645660003
    SCF energy          (wfn)                = -102.953238871874646
    Reference energy    (file100)            = -102.953238871874674
    CCSD energy         (file100)            =   -0.103232015570657
    Total CCSD energy   (file100)            = -103.056470887445329

    Number of ijk index combinations:               84
    Memory available in words        :        65536000
    ~Words needed per explicit thread:             500
    Number of threads for explicit ijk threading:    1

    MKL num_threads set to 1 for explicit threading.

    (T) energy                                =   -0.001345899488967
      * CCSD(T) total energy                  = -103.057816786934296

    SCF Algorithm Type (re)set to DF.

*** tstart() called on comp0002
*** at Mon Jul  8 07:19:24 2019

   => Loading Basis Set <=

    Name: 6-31G
    Role: ORBITAL
    Keyword: BASIS
    atoms 1-2 entry N          line   102 file /home/maho/psi4conda/share/psi4/basis/6-31g.gbs 


         ---------------------------------------------------------
                                   SCF
               by Justin Turney, Rob Parrish, Andy Simmonett
                          and Daniel G. A. Smith
                              RHF Reference
                        1 Threads,    500 MiB Core
         ---------------------------------------------------------

  ==> Geometry <==

    Molecular point group: c2v
    Full point group: C_inf_v

    Geometry (in Angstrom), charge = 0, multiplicity = 1:

       Center              X                  Y                   Z               Mass       
    ------------   -----------------  -----------------  -----------------  -----------------
         N            0.500000000000     0.000000000000     0.000000000000    14.003074004430
         N            0.000000000000     0.000000000000     0.000000000000    14.003074004430

  Running in c2v symmetry.

  Rotational constants: A = ************  B =      4.81541  C =      4.81541 [cm^-1]
  Rotational constants: A = ************  B = 144362.30464  C = 144362.30464 [MHz]
  Nuclear repulsion =   51.859366645660003

  Charge       = 0
  Multiplicity = 1
  Electrons    = 14
  Nalpha       = 7
  Nbeta        = 7

  ==> Algorithm <==

  SCF Algorithm Type is DF.
  DIIS enabled.
  MOM disabled.
  Fractional occupation disabled.
  Guess Type is SAD.
  Energy threshold   = 1.00e-08
  Density threshold  = 1.00e-08
  Integral threshold = 0.00e+00

  ==> Primary Basis <==

  Basis Set: 6-31G
    Blend: 6-31G
    Number of shells: 10
    Number of basis function: 18
    Number of Cartesian functions: 18
    Spherical Harmonics?: false
    Max angular momentum: 1

   => Loading Basis Set <=

    Name: (6-31G AUX)
    Role: JKFIT
    Keyword: DF_BASIS_SCF
    atoms 1-2 entry N          line   171 file /home/maho/psi4conda/share/psi4/basis/cc-pvdz-jkfit.gbs 

  ==> Pre-Iterations <==

   -------------------------------------------------------
    Irrep   Nso     Nmo     Nalpha   Nbeta   Ndocc  Nsocc
   -------------------------------------------------------
     A1        10      10       0       0       0       0
     A2         0       0       0       0       0       0
     B1         4       4       0       0       0       0
     B2         4       4       0       0       0       0
   -------------------------------------------------------
    Total      18      18       7       7       7       0
   -------------------------------------------------------

  ==> Integral Setup <==

  DFHelper Memory: AOs need 0.001 GiB; user supplied 0.366 GiB. Using in-core AOs.

  ==> MemDFJK: Density-Fitted J/K Matrices <==

    J tasked:                   Yes
    K tasked:                   Yes
    wK tasked:                   No
    OpenMP threads:               1
    Memory [MiB]:               375
    Algorithm:                 Core
    Schwarz Cutoff:           1E-12
    Mask sparsity (%):       0.0000
    Fitting Condition:        1E-10

   => Auxiliary Basis Set <=

  Basis Set: (6-31G AUX)
    Blend: CC-PVDZ-JKFIT
    Number of shells: 48
    Number of basis function: 162
    Number of Cartesian functions: 162
    Spherical Harmonics?: false
    Max angular momentum: 3

  Minimum eigenvalue in the overlap matrix is 8.6499037986E-05.
  Using Symmetric Orthogonalization.

  SCF Guess: Superposition of Atomic Densities via on-the-fly atomic UHF.

  ==> Iterations <==

                           Total Energy        Delta E     RMS |[F,P]|

   @DF-RHF iter SAD:  -106.41855244406831   -1.06419e+02   0.00000e+00 
   @DF-RHF iter   1:  -102.87799455669177    3.54056e+00   3.18400e-02 DIIS
   @DF-RHF iter   2:  -102.94966176784612   -7.16672e-02   6.15601e-03 DIIS
   @DF-RHF iter   3:  -102.95264671470429   -2.98495e-03   1.62913e-03 DIIS
   @DF-RHF iter   4:  -102.95295830103244   -3.11586e-04   1.36353e-04 DIIS
   @DF-RHF iter   5:  -102.95296000182266   -1.70079e-06   1.57972e-05 DIIS
   @DF-RHF iter   6:  -102.95296002957701   -2.77544e-08   1.14497e-06 DIIS
   @DF-RHF iter   7:  -102.95296002969167   -1.14653e-10   1.35307e-07 DIIS
   @DF-RHF iter   8:  -102.95296002969400   -2.33058e-12   2.72412e-09 DIIS
  Energy and wave function converged.


  ==> Post-Iterations <==

    Orbital Energies [Eh]
    ---------------------

    Doubly Occupied:                                                      

       1A1   -16.528397     2A1   -15.835366     3A1    -1.471182  
       1B2    -1.190891     1B1    -1.190891     4A1    -0.544169  
       5A1    -0.522554  

    Virtual:                                                              

       2B1     0.526577     2B2     0.526577     3B2     0.567627  
       3B1     0.567627     6A1     0.664595     7A1     0.709841  
       8A1     1.005831     9A1     1.507031     4B1     1.639737  
       4B2     1.639737    10A1     9.841642  

    Final Occupation by Irrep:
             A1    A2    B1    B2 
    DOCC [     5,    0,    1,    1 ]

  @DF-RHF Final Energy:  -102.95296002969400

   => Energetics <=

    Nuclear Repulsion Energy =             51.8593666456600033
    One-Electron Energy =                -235.0577544431936587
    Two-Electron Energy =                  80.2454277678396579
    Total Energy =                       -102.9529600296939975

Computation Completed


Properties will be evaluated at   0.000000,   0.000000,   0.000000 [a0]

Properties computed using the SCF density matrix

  Nuclear Dipole Moment: [e a0]
     X:     6.6140      Y:     0.0000      Z:     0.0000

  Electronic Dipole Moment: [e a0]
     X:    -6.6140      Y:     0.0000      Z:     0.0000

  Dipole Moment: [e a0]
     X:    -0.0000      Y:     0.0000      Z:     0.0000     Total:     0.0000

  Dipole Moment: [D]
     X:    -0.0000      Y:     0.0000      Z:     0.0000     Total:     0.0000


*** tstop() called on comp0002 at Mon Jul  8 07:19:24 2019
Module time:
	user time   =       0.46 seconds =       0.01 minutes
	system time =       0.02 seconds =       0.00 minutes
	total time  =          0 seconds =       0.00 minutes
Total time:
	user time   =       1.53 seconds =       0.03 minutes
	system time =       0.20 seconds =       0.00 minutes
	total time  =          2 seconds =       0.03 minutes

*** tstart() called on comp0002
*** at Mon Jul  8 07:19:24 2019


  //>>>>>>>>>>>>>>>>>>>>>>>>>>>>>>>>>>>//
  //               DFMP2               //
  //<<<<<<<<<<<<<<<<<<<<<<<<<<<<<<<<<<<//

   => Loading Basis Set <=

    Name: (6-31G AUX)
    Role: RIFIT
    Keyword: DF_BASIS_MP2
    atoms 1-2 entry N          line   197 file /home/maho/psi4conda/share/psi4/basis/cc-pvdz-ri.gbs 

	 --------------------------------------------------------
	                          DF-MP2                         
	      2nd-Order Density-Fitted Moller-Plesset Theory     
	              RMP2 Wavefunction,   1 Threads             
	                                                         
	        Rob Parrish, Justin Turney, Andy Simmonett,      
	           Ed Hohenstein, and C. David Sherrill          
	 --------------------------------------------------------

   => Auxiliary Basis Set <=

  Basis Set: (6-31G AUX)
    Blend: CC-PVDZ-RI
    Number of shells: 36
    Number of basis function: 112
    Number of Cartesian functions: 132
    Spherical Harmonics?: true
    Max angular momentum: 3

	 --------------------------------------------------------
	                 NBF =    18, NAUX =   112
	 --------------------------------------------------------
	   CLASS    FOCC     OCC    AOCC    AVIR     VIR    FVIR
	   PAIRS       0       7       7      11      11       0
	 --------------------------------------------------------

	-----------------------------------------------------------
	 ==================> DF-MP2 Energies <==================== 
	-----------------------------------------------------------
	 Reference Energy          =    -102.9529600296939975 [Eh]
	 Singles Energy            =      -0.0000000000000000 [Eh]
	 Same-Spin Energy          =      -0.0192302435955506 [Eh]
	 Opposite-Spin Energy      =      -0.0724860386036346 [Eh]
	 Correlation Energy        =      -0.0917162821991852 [Eh]
	 Total Energy              =    -103.0446763118931841 [Eh]
	-----------------------------------------------------------
	 ================> DF-SCS-MP2 Energies <================== 
	-----------------------------------------------------------
	 SCS Same-Spin Scale       =       0.3333333333333333 [-]
	 SCS Opposite-Spin Scale   =       1.2000000000000000 [-]
	 SCS Same-Spin Energy      =      -0.0064100811985169 [Eh]
	 SCS Opposite-Spin Energy  =      -0.0869832463243615 [Eh]
	 SCS Correlation Energy    =      -0.0933933275228783 [Eh]
	 SCS Total Energy          =    -103.0463533572168728 [Eh]
	-----------------------------------------------------------


*** tstop() called on comp0002 at Mon Jul  8 07:19:24 2019
Module time:
	user time   =       0.13 seconds =       0.00 minutes
	system time =       0.00 seconds =       0.00 minutes
	total time  =          0 seconds =       0.00 minutes
Total time:
	user time   =       1.66 seconds =       0.03 minutes
	system time =       0.20 seconds =       0.00 minutes
	total time  =          2 seconds =       0.03 minutes
Molecule: Setting geometry variable R to 0.600000

*** tstart() called on comp0002
*** at Mon Jul  8 07:19:24 2019

   => Loading Basis Set <=

    Name: 6-31G
    Role: ORBITAL
    Keyword: BASIS
    atoms 1-2 entry N          line   102 file /home/maho/psi4conda/share/psi4/basis/6-31g.gbs 


         ---------------------------------------------------------
                                   SCF
               by Justin Turney, Rob Parrish, Andy Simmonett
                          and Daniel G. A. Smith
                              RHF Reference
                        1 Threads,    500 MiB Core
         ---------------------------------------------------------

  ==> Geometry <==

    Molecular point group: c2v
    Full point group: C_inf_v

    Geometry (in Angstrom), charge = 0, multiplicity = 1:

       Center              X                  Y                   Z               Mass       
    ------------   -----------------  -----------------  -----------------  -----------------
         N            0.600000000000     0.000000000000     0.000000000000    14.003074004430
         N            0.000000000000     0.000000000000     0.000000000000    14.003074004430

  Running in c2v symmetry.

  Rotational constants: A = ************  B =      3.34403  C =      3.34403 [cm^-1]
  Rotational constants: A = ************  B = 100251.60045  C = 100251.60045 [MHz]
  Nuclear repulsion =   43.216138871383336

  Charge       = 0
  Multiplicity = 1
  Electrons    = 14
  Nalpha       = 7
  Nbeta        = 7

  ==> Algorithm <==

  SCF Algorithm Type is DF.
  DIIS enabled.
  MOM disabled.
  Fractional occupation disabled.
  Guess Type is SAD.
  Energy threshold   = 1.00e-06
  Density threshold  = 1.00e-06
  Integral threshold = 0.00e+00

  ==> Primary Basis <==

  Basis Set: 6-31G
    Blend: 6-31G
    Number of shells: 10
    Number of basis function: 18
    Number of Cartesian functions: 18
    Spherical Harmonics?: false
    Max angular momentum: 1

   => Loading Basis Set <=

    Name: (6-31G AUX)
    Role: JKFIT
    Keyword: DF_BASIS_SCF
    atoms 1-2 entry N          line   171 file /home/maho/psi4conda/share/psi4/basis/cc-pvdz-jkfit.gbs 

  ==> Pre-Iterations <==

   -------------------------------------------------------
    Irrep   Nso     Nmo     Nalpha   Nbeta   Ndocc  Nsocc
   -------------------------------------------------------
     A1        10      10       0       0       0       0
     A2         0       0       0       0       0       0
     B1         4       4       0       0       0       0
     B2         4       4       0       0       0       0
   -------------------------------------------------------
    Total      18      18       7       7       7       0
   -------------------------------------------------------

  ==> Integral Setup <==

  DFHelper Memory: AOs need 0.001 GiB; user supplied 0.366 GiB. Using in-core AOs.

  ==> MemDFJK: Density-Fitted J/K Matrices <==

    J tasked:                   Yes
    K tasked:                   Yes
    wK tasked:                   No
    OpenMP threads:               1
    Memory [MiB]:               375
    Algorithm:                 Core
    Schwarz Cutoff:           1E-12
    Mask sparsity (%):       0.0000
    Fitting Condition:        1E-10

   => Auxiliary Basis Set <=

  Basis Set: (6-31G AUX)
    Blend: CC-PVDZ-JKFIT
    Number of shells: 48
    Number of basis function: 162
    Number of Cartesian functions: 162
    Spherical Harmonics?: false
    Max angular momentum: 3

  Minimum eigenvalue in the overlap matrix is 2.5300433423E-04.
  Using Symmetric Orthogonalization.

  SCF Guess: Superposition of Atomic Densities via on-the-fly atomic UHF.

  ==> Iterations <==

                           Total Energy        Delta E     RMS |[F,P]|

   @DF-RHF iter SAD:  -108.10992376987370   -1.08110e+02   0.00000e+00 
   @DF-RHF iter   1:  -105.89164662597906    2.21828e+00   2.36093e-02 DIIS
   @DF-RHF iter   2:  -105.93139548913268   -3.97489e-02   4.35091e-03 DIIS
   @DF-RHF iter   3:  -105.93290067732339   -1.50519e-03   1.10569e-03 DIIS
   @DF-RHF iter   4:  -105.93303717254307   -1.36495e-04   9.01378e-05 DIIS
   @DF-RHF iter   5:  -105.93303808051455   -9.07971e-07   8.22615e-06 DIIS
   @DF-RHF iter   6:  -105.93303808805672   -7.54217e-09   4.95328e-07 DIIS
  Energy and wave function converged.


  ==> Post-Iterations <==

    Orbital Energies [Eh]
    ---------------------

    Doubly Occupied:                                                      

       1A1   -15.954915     2A1   -15.700427     3A1    -1.630564  
       1B1    -1.014955     1B2    -1.014955     4A1    -0.623039  
       5A1    -0.576589  

    Virtual:                                                              

       2B2     0.473667     2B1     0.473667     3B2     0.623633  
       3B1     0.623633     6A1     0.662711     7A1     0.698566  
       8A1     1.017596     4B2     1.440400     4B1     1.440400  
       9A1     1.500241    10A1     5.995198  

    Final Occupation by Irrep:
             A1    A2    B1    B2 
    DOCC [     5,    0,    1,    1 ]

  @DF-RHF Final Energy:  -105.93303808805672

   => Energetics <=

    Nuclear Repulsion Energy =             43.2161388713833361
    One-Electron Energy =                -225.2674541289638910
    Two-Electron Energy =                  76.1182771695238216
    Total Energy =                       -105.9330380880567191

Computation Completed


Properties will be evaluated at   0.000000,   0.000000,   0.000000 [a0]

Properties computed using the SCF density matrix

  Nuclear Dipole Moment: [e a0]
     X:     7.9368      Y:     0.0000      Z:     0.0000

  Electronic Dipole Moment: [e a0]
     X:    -7.9368      Y:     0.0000      Z:     0.0000

  Dipole Moment: [e a0]
     X:    -0.0000      Y:     0.0000      Z:     0.0000     Total:     0.0000

  Dipole Moment: [D]
     X:    -0.0000      Y:     0.0000      Z:     0.0000     Total:     0.0000


*** tstop() called on comp0002 at Mon Jul  8 07:19:25 2019
Module time:
	user time   =       0.46 seconds =       0.01 minutes
	system time =       0.00 seconds =       0.00 minutes
	total time  =          1 seconds =       0.02 minutes
Total time:
	user time   =       2.12 seconds =       0.04 minutes
	system time =       0.20 seconds =       0.00 minutes
	total time  =          3 seconds =       0.05 minutes

*** tstart() called on comp0002
*** at Mon Jul  8 07:19:25 2019

   => Loading Basis Set <=

    Name: 6-31G
    Role: ORBITAL
    Keyword: BASIS
    atoms 1-2 entry N          line   102 file /home/maho/psi4conda/share/psi4/basis/6-31g.gbs 


         ---------------------------------------------------------
                                   SCF
               by Justin Turney, Rob Parrish, Andy Simmonett
                          and Daniel G. A. Smith
                              RHF Reference
                        1 Threads,    500 MiB Core
         ---------------------------------------------------------

  ==> Geometry <==

    Molecular point group: c2v
    Full point group: C_inf_v

    Geometry (in Angstrom), charge = 0, multiplicity = 1:

       Center              X                  Y                   Z               Mass       
    ------------   -----------------  -----------------  -----------------  -----------------
         N            0.600000000000     0.000000000000     0.000000000000    14.003074004430
         N            0.000000000000     0.000000000000     0.000000000000    14.003074004430

  Running in c2v symmetry.

  Rotational constants: A = ************  B =      3.34403  C =      3.34403 [cm^-1]
  Rotational constants: A = ************  B = 100251.60045  C = 100251.60045 [MHz]
  Nuclear repulsion =   43.216138871383336

  Charge       = 0
  Multiplicity = 1
  Electrons    = 14
  Nalpha       = 7
  Nbeta        = 7

  ==> Algorithm <==

  SCF Algorithm Type is PK.
  DIIS enabled.
  MOM disabled.
  Fractional occupation disabled.
  Guess Type is SAD.
  Energy threshold   = 1.00e-08
  Density threshold  = 1.00e-08
  Integral threshold = 0.00e+00

  ==> Primary Basis <==

  Basis Set: 6-31G
    Blend: 6-31G
    Number of shells: 10
    Number of basis function: 18
    Number of Cartesian functions: 18
    Spherical Harmonics?: false
    Max angular momentum: 1

  ==> Pre-Iterations <==

   -------------------------------------------------------
    Irrep   Nso     Nmo     Nalpha   Nbeta   Ndocc  Nsocc
   -------------------------------------------------------
     A1        10      10       0       0       0       0
     A2         0       0       0       0       0       0
     B1         4       4       0       0       0       0
     B2         4       4       0       0       0       0
   -------------------------------------------------------
    Total      18      18       7       7       7       0
   -------------------------------------------------------

  ==> Integral Setup <==

  Using in-core PK algorithm.
   Calculation information:
      Number of atoms:                   2
      Number of AO shells:              10
      Number of primitives:             28
      Number of atomic orbitals:        18
      Number of basis functions:        18

      Integral cutoff                 1.00e-12
      Number of threads:                 1

  Performing in-core PK
  Using 29412 doubles for integral storage.
  We computed 1540 shell quartets total.
  Whereas there are 1540 unique shell quartets.

  ==> DiskJK: Disk-Based J/K Matrices <==

    J tasked:                  Yes
    K tasked:                  Yes
    wK tasked:                  No
    Memory [MiB]:              375
    Schwarz Cutoff:          1E-12

    OpenMP threads:              1

  Minimum eigenvalue in the overlap matrix is 2.5300433423E-04.
  Using Symmetric Orthogonalization.

  SCF Guess: Superposition of Atomic Densities via on-the-fly atomic UHF.

  ==> Iterations <==

                        Total Energy        Delta E     RMS |[F,P]|

   @RHF iter SAD:  -108.11004415125211   -1.08110e+02   0.00000e+00 
   @RHF iter   1:  -105.89188832088527    2.21816e+00   2.36113e-02 DIIS
   @RHF iter   2:  -105.93164015235868   -3.97518e-02   4.35069e-03 DIIS
   @RHF iter   3:  -105.93314546977615   -1.50532e-03   1.10576e-03 DIIS
   @RHF iter   4:  -105.93328198037449   -1.36511e-04   9.01471e-05 DIIS
   @RHF iter   5:  -105.93328288856179   -9.08187e-07   8.22667e-06 DIIS
   @RHF iter   6:  -105.93328289610476   -7.54297e-09   4.95207e-07 DIIS
   @RHF iter   7:  -105.93328289612673   -2.19700e-11   5.14664e-08 DIIS
   @RHF iter   8:  -105.93328289612705   -3.26850e-13   2.02613e-09 DIIS
  Energy and wave function converged.


  ==> Post-Iterations <==

    Orbital Energies [Eh]
    ---------------------

    Doubly Occupied:                                                      

       1A1   -15.954847     2A1   -15.700344     3A1    -1.630522  
       1B1    -1.015004     1B2    -1.015004     4A1    -0.623051  
       5A1    -0.576562  

    Virtual:                                                              

       2B2     0.473655     2B1     0.473655     3B1     0.623581  
       3B2     0.623581     6A1     0.662733     7A1     0.698557  
       8A1     1.017605     4B2     1.440369     4B1     1.440369  
       9A1     1.500260    10A1     5.995192  

    Final Occupation by Irrep:
             A1    A2    B1    B2 
    DOCC [     5,    0,    1,    1 ]

  @RHF Final Energy:  -105.93328289612705

   => Energetics <=

    Nuclear Repulsion Energy =             43.2161388713833361
    One-Electron Energy =                -225.2681772250188033
    Two-Electron Energy =                  76.1187554575083993
    Total Energy =                       -105.9332828961270536

Computation Completed


Properties will be evaluated at   0.000000,   0.000000,   0.000000 [a0]

Properties computed using the SCF density matrix

  Nuclear Dipole Moment: [e a0]
     X:     7.9368      Y:     0.0000      Z:     0.0000

  Electronic Dipole Moment: [e a0]
     X:    -7.9368      Y:     0.0000      Z:     0.0000

  Dipole Moment: [e a0]
     X:    -0.0000      Y:     0.0000      Z:     0.0000     Total:     0.0000

  Dipole Moment: [D]
     X:    -0.0000      Y:     0.0000      Z:     0.0000     Total:     0.0000


*** tstop() called on comp0002 at Mon Jul  8 07:19:25 2019
Module time:
	user time   =       0.41 seconds =       0.01 minutes
	system time =       0.03 seconds =       0.00 minutes
	total time  =          0 seconds =       0.00 minutes
Total time:
	user time   =       2.53 seconds =       0.04 minutes
	system time =       0.23 seconds =       0.00 minutes
	total time  =          3 seconds =       0.05 minutes
 MINTS: Wrapper to libmints.
   by Justin Turney

   Calculation information:
      Number of threads:                 1
      Number of atoms:                   2
      Number of AO shells:              10
      Number of SO shells:              10
      Number of primitives:             28
      Number of atomic orbitals:        18
      Number of basis functions:        18

      Number of irreps:                  4
      Integral cutoff                 0.00e+00
      Number of functions per irrep: [  10    0    4    4 ]

 OEINTS: Overlap, kinetic, potential, dipole, and quadrupole integrals
         stored in file 35.

      Computing two-electron integrals...done
      Computed 4350 non-zero two-electron integrals.
        Stored in file 33.


*** tstart() called on comp0002
*** at Mon Jul  8 07:19:25 2019


	Wfn Parameters:
	--------------------
	Wavefunction         = CCSD_T
	Number of irreps     = 4
	Number of MOs        = 18
	Number of active MOs = 18
	AO-Basis             = NONE
	Semicanonical        = false
	Reference            = RHF
	Print Level          = 1

	IRREP	# MOs	# FZDC	# DOCC	# SOCC	# VIRT	# FZVR
	-----	-----	------	------	------	------	------
	 A1	   10	    0	    5	    0	    5	    0
	 A2	   0	    0	    0	    0	    0	    0
	 B1	   4	    0	    1	    0	    3	    0
	 B2	   4	    0	    1	    0	    3	    0
	Transforming integrals...
	IWL integrals will be deleted.
	(OO|OO)...
	Presorting SO-basis two-electron integrals.
	Sorting File: SO Ints (nn|nn) nbuckets = 1
	Transforming the one-electron integrals and constructing Fock matrices
	Starting first half-transformation.
	Sorting half-transformed integrals.
	First half integral transformation complete.
	Starting second half-transformation.
	Two-electron integral transformation complete.
	(OO|OV)...
	Starting second half-transformation.
	Two-electron integral transformation complete.
	(OO|VV)...
	Starting second half-transformation.
	Two-electron integral transformation complete.
	(OV|OO)...
	Starting first half-transformation.
	Sorting half-transformed integrals.
	First half integral transformation complete.
	Starting second half-transformation.
	Two-electron integral transformation complete.
	(OV|OV)...
	Starting second half-transformation.
	Two-electron integral transformation complete.
	(OV|VV)...
	Starting second half-transformation.
	Two-electron integral transformation complete.
	(VV|OO)...
	Starting first half-transformation.
	Sorting half-transformed integrals.
	First half integral transformation complete.
	Starting second half-transformation.
	Two-electron integral transformation complete.
	(VV|OV)...
	Starting second half-transformation.
	Two-electron integral transformation complete.
	(VV|VV)...
	Starting second half-transformation.
	Two-electron integral transformation complete.
	Frozen core energy     =      0.00000000000000

	Size of irrep 0 of <ab|cd> integrals:      0.002 (MW) /      0.015 (MB)
	Size of irrep 1 of <ab|cd> integrals:      0.000 (MW) /      0.003 (MB)
	Size of irrep 2 of <ab|cd> integrals:      0.001 (MW) /      0.007 (MB)
	Size of irrep 3 of <ab|cd> integrals:      0.001 (MW) /      0.007 (MB)
	Total:                                     0.004 (MW) /      0.032 (MB)

	Size of irrep 0 of <ia|bc> integrals:      0.001 (MW) /      0.011 (MB)
	Size of irrep 1 of <ia|bc> integrals:      0.000 (MW) /      0.001 (MB)
	Size of irrep 2 of <ia|bc> integrals:      0.001 (MW) /      0.005 (MB)
	Size of irrep 3 of <ia|bc> integrals:      0.001 (MW) /      0.005 (MB)
	Total:                                     0.003 (MW) /      0.021 (MB)

	Size of irrep 0 of tijab amplitudes:       0.001 (MW) /      0.009 (MB)
	Size of irrep 1 of tijab amplitudes:       0.000 (MW) /      0.000 (MB)
	Size of irrep 2 of tijab amplitudes:       0.000 (MW) /      0.002 (MB)
	Size of irrep 3 of tijab amplitudes:       0.000 (MW) /      0.002 (MB)
	Total:                                     0.002 (MW) /      0.014 (MB)

	Nuclear Rep. energy          =     43.21613887138334
	SCF energy                   =   -105.93328289612705
	One-electron energy          =   -225.26817729039226
	Two-electron energy          =     76.11875552288186
	Reference energy             =   -105.93328289612707

*** tstop() called on comp0002 at Mon Jul  8 07:19:25 2019
Module time:
	user time   =       0.01 seconds =       0.00 minutes
	system time =       0.03 seconds =       0.00 minutes
	total time  =          0 seconds =       0.00 minutes
Total time:
	user time   =       2.57 seconds =       0.04 minutes
	system time =       0.26 seconds =       0.00 minutes
	total time  =          3 seconds =       0.05 minutes
            **************************
            *                        *
            *        CCENERGY        *
            *                        *
            **************************

    Nuclear Rep. energy (wfn)     =   43.216138871383336
    SCF energy          (wfn)     = -105.933282896127054
    Reference energy    (file100) = -105.933282896127068

    Input parameters:
    -----------------
    Wave function   =     CCSD_T
    Reference wfn   =     RHF
    Brueckner       =     No
    Memory (Mbytes) =     524.3
    Maxiter         =     50
    R_Convergence   =     1.0e-07
    E_Convergence   =     1.0e-06
    Restart         =     Yes
    DIIS            =     Yes
    AO Basis        =     NONE
    ABCD            =     NEW
    Cache Level     =     2
    Cache Type      =     LOW
    Print Level     =     1
    Num. of threads =     1
    # Amps to Print =     10
    Print MP2 Amps? =     No
    Analyze T2 Amps =     No
    Print Pair Ener =     No
    Local CC        =     No
    SCS-MP2         =     False
    SCSN-MP2        =     False
    SCS-CCSD        =     False

MP2 correlation energy -0.1123029199251064
                Solving CC Amplitude Equations
                ------------------------------
  Iter             Energy              RMS        T1Diag      D1Diag    New D1Diag    D2Diag
  ----     ---------------------    ---------   ----------  ----------  ----------   --------
     0        -0.112302919925106    0.000e+00    0.000000    0.000000    0.000000    0.076581
     1        -0.119825741773605    2.302e-02    0.002304    0.005853    0.005853    0.089417
     2        -0.122375781305989    7.067e-03    0.003200    0.008136    0.008136    0.094485
     3        -0.122478376267557    1.111e-03    0.003358    0.008603    0.008603    0.094909
     4        -0.122486429335853    1.785e-04    0.003376    0.008636    0.008636    0.094931
     5        -0.122486548909239    3.051e-05    0.003379    0.008644    0.008644    0.094927
     6        -0.122486329828720    5.687e-06    0.003379    0.008645    0.008645    0.094927
     7        -0.122486310082587    8.560e-07    0.003379    0.008645    0.008645    0.094927
     8        -0.122486304621779    1.581e-07    0.003379    0.008645    0.008645    0.094927
     9        -0.122486304037948    2.227e-08    0.003379    0.008645    0.008645    0.094927

    Iterations converged.


    Largest TIA Amplitudes:
              4   0        -0.0085839447
              3   1        -0.0063000561
              3   2         0.0056773159
              2   1        -0.0025511427
              2   2        -0.0025222146
              4   3        -0.0010082781
              5   6        -0.0003849121
              6   9        -0.0003849121
              4   4         0.0001796972
              1   4         0.0001675858

    Largest TIjAb Amplitudes:
      4   4   5   5        -0.0347838889
      4   4   8   8        -0.0347838889
      5   5   7   7        -0.0321869351
      6   6  10  10        -0.0321869351
      5   5   5   7        -0.0245813389
      5   5   7   5        -0.0245813389
      6   6   8  10        -0.0245813389
      6   6  10   8        -0.0245813389
      5   5   5   5        -0.0233580863
      6   6   8   8        -0.0233580863

    SCF energy       (wfn)                    = -105.933282896127054
    Reference energy (file100)                = -105.933282896127068

    Opposite-spin MP2 correlation energy      =   -0.085899815649120
    Same-spin MP2 correlation energy          =   -0.026403104275986
    MP2 correlation energy                    =   -0.112302919925106
      * MP2 total energy                      = -106.045585816052181

    Opposite-spin CCSD correlation energy     =   -0.097614222286281
    Same-spin CCSD correlation energy         =   -0.024872081751664
    CCSD correlation energy                   =   -0.122486304037948
      * CCSD total energy                     = -106.055769200165017

            **************************
            *                        *
            *        CCTRIPLES       *
            *                        *
            **************************


    Wave function   =    CCSD_T
    Reference wfn   =      RHF

    Nuclear Rep. energy (wfn)                =   43.216138871383336
    SCF energy          (wfn)                = -105.933282896127054
    Reference energy    (file100)            = -105.933282896127068
    CCSD energy         (file100)            =   -0.122486304037948
    Total CCSD energy   (file100)            = -106.055769200165017

    Number of ijk index combinations:               84
    Memory available in words        :        65536000
    ~Words needed per explicit thread:             500
    Number of threads for explicit ijk threading:    1

    MKL num_threads set to 1 for explicit threading.

    (T) energy                                =   -0.001568252667649
      * CCSD(T) total energy                  = -106.057337452832670

    SCF Algorithm Type (re)set to DF.

*** tstart() called on comp0002
*** at Mon Jul  8 07:19:25 2019

   => Loading Basis Set <=

    Name: 6-31G
    Role: ORBITAL
    Keyword: BASIS
    atoms 1-2 entry N          line   102 file /home/maho/psi4conda/share/psi4/basis/6-31g.gbs 


         ---------------------------------------------------------
                                   SCF
               by Justin Turney, Rob Parrish, Andy Simmonett
                          and Daniel G. A. Smith
                              RHF Reference
                        1 Threads,    500 MiB Core
         ---------------------------------------------------------

  ==> Geometry <==

    Molecular point group: c2v
    Full point group: C_inf_v

    Geometry (in Angstrom), charge = 0, multiplicity = 1:

       Center              X                  Y                   Z               Mass       
    ------------   -----------------  -----------------  -----------------  -----------------
         N            0.600000000000     0.000000000000     0.000000000000    14.003074004430
         N            0.000000000000     0.000000000000     0.000000000000    14.003074004430

  Running in c2v symmetry.

  Rotational constants: A = ************  B =      3.34403  C =      3.34403 [cm^-1]
  Rotational constants: A = ************  B = 100251.60045  C = 100251.60045 [MHz]
  Nuclear repulsion =   43.216138871383336

  Charge       = 0
  Multiplicity = 1
  Electrons    = 14
  Nalpha       = 7
  Nbeta        = 7

  ==> Algorithm <==

  SCF Algorithm Type is DF.
  DIIS enabled.
  MOM disabled.
  Fractional occupation disabled.
  Guess Type is SAD.
  Energy threshold   = 1.00e-08
  Density threshold  = 1.00e-08
  Integral threshold = 0.00e+00

  ==> Primary Basis <==

  Basis Set: 6-31G
    Blend: 6-31G
    Number of shells: 10
    Number of basis function: 18
    Number of Cartesian functions: 18
    Spherical Harmonics?: false
    Max angular momentum: 1

   => Loading Basis Set <=

    Name: (6-31G AUX)
    Role: JKFIT
    Keyword: DF_BASIS_SCF
    atoms 1-2 entry N          line   171 file /home/maho/psi4conda/share/psi4/basis/cc-pvdz-jkfit.gbs 

  ==> Pre-Iterations <==

   -------------------------------------------------------
    Irrep   Nso     Nmo     Nalpha   Nbeta   Ndocc  Nsocc
   -------------------------------------------------------
     A1        10      10       0       0       0       0
     A2         0       0       0       0       0       0
     B1         4       4       0       0       0       0
     B2         4       4       0       0       0       0
   -------------------------------------------------------
    Total      18      18       7       7       7       0
   -------------------------------------------------------

  ==> Integral Setup <==

  DFHelper Memory: AOs need 0.001 GiB; user supplied 0.366 GiB. Using in-core AOs.

  ==> MemDFJK: Density-Fitted J/K Matrices <==

    J tasked:                   Yes
    K tasked:                   Yes
    wK tasked:                   No
    OpenMP threads:               1
    Memory [MiB]:               375
    Algorithm:                 Core
    Schwarz Cutoff:           1E-12
    Mask sparsity (%):       0.0000
    Fitting Condition:        1E-10

   => Auxiliary Basis Set <=

  Basis Set: (6-31G AUX)
    Blend: CC-PVDZ-JKFIT
    Number of shells: 48
    Number of basis function: 162
    Number of Cartesian functions: 162
    Spherical Harmonics?: false
    Max angular momentum: 3

  Minimum eigenvalue in the overlap matrix is 2.5300433423E-04.
  Using Symmetric Orthogonalization.

  SCF Guess: Superposition of Atomic Densities via on-the-fly atomic UHF.

  ==> Iterations <==

                           Total Energy        Delta E     RMS |[F,P]|

   @DF-RHF iter SAD:  -108.10992376987370   -1.08110e+02   0.00000e+00 
   @DF-RHF iter   1:  -105.89164662597906    2.21828e+00   2.36093e-02 DIIS
   @DF-RHF iter   2:  -105.93139548913268   -3.97489e-02   4.35091e-03 DIIS
   @DF-RHF iter   3:  -105.93290067732339   -1.50519e-03   1.10569e-03 DIIS
   @DF-RHF iter   4:  -105.93303717254307   -1.36495e-04   9.01378e-05 DIIS
   @DF-RHF iter   5:  -105.93303808051455   -9.07971e-07   8.22615e-06 DIIS
   @DF-RHF iter   6:  -105.93303808805672   -7.54217e-09   4.95328e-07 DIIS
   @DF-RHF iter   7:  -105.93303808807883   -2.21121e-11   5.14931e-08 DIIS
   @DF-RHF iter   8:  -105.93303808807912   -2.84217e-13   2.02766e-09 DIIS
  Energy and wave function converged.


  ==> Post-Iterations <==

    Orbital Energies [Eh]
    ---------------------

    Doubly Occupied:                                                      

       1A1   -15.954914     2A1   -15.700426     3A1    -1.630563  
       1B1    -1.014954     1B2    -1.014954     4A1    -0.623039  
       5A1    -0.576589  

    Virtual:                                                              

       2B2     0.473668     2B1     0.473668     3B2     0.623633  
       3B1     0.623633     6A1     0.662711     7A1     0.698566  
       8A1     1.017597     4B2     1.440401     4B1     1.440401  
       9A1     1.500241    10A1     5.995199  

    Final Occupation by Irrep:
             A1    A2    B1    B2 
    DOCC [     5,    0,    1,    1 ]

  @DF-RHF Final Energy:  -105.93303808807912

   => Energetics <=

    Nuclear Repulsion Energy =             43.2161388713833361
    One-Electron Energy =                -225.2674717570273231
    Two-Electron Energy =                  76.1182947975648858
    Total Energy =                       -105.9330380880791154

Computation Completed


Properties will be evaluated at   0.000000,   0.000000,   0.000000 [a0]

Properties computed using the SCF density matrix

  Nuclear Dipole Moment: [e a0]
     X:     7.9368      Y:     0.0000      Z:     0.0000

  Electronic Dipole Moment: [e a0]
     X:    -7.9368      Y:     0.0000      Z:     0.0000

  Dipole Moment: [e a0]
     X:    -0.0000      Y:     0.0000      Z:     0.0000     Total:     0.0000

  Dipole Moment: [D]
     X:    -0.0000      Y:     0.0000      Z:     0.0000     Total:     0.0000


*** tstop() called on comp0002 at Mon Jul  8 07:19:26 2019
Module time:
	user time   =       0.47 seconds =       0.01 minutes
	system time =       0.01 seconds =       0.00 minutes
	total time  =          1 seconds =       0.02 minutes
Total time:
	user time   =       3.10 seconds =       0.05 minutes
	system time =       0.41 seconds =       0.01 minutes
	total time  =          4 seconds =       0.07 minutes

*** tstart() called on comp0002
*** at Mon Jul  8 07:19:26 2019


  //>>>>>>>>>>>>>>>>>>>>>>>>>>>>>>>>>>>//
  //               DFMP2               //
  //<<<<<<<<<<<<<<<<<<<<<<<<<<<<<<<<<<<//

   => Loading Basis Set <=

    Name: (6-31G AUX)
    Role: RIFIT
    Keyword: DF_BASIS_MP2
    atoms 1-2 entry N          line   197 file /home/maho/psi4conda/share/psi4/basis/cc-pvdz-ri.gbs 

	 --------------------------------------------------------
	                          DF-MP2                         
	      2nd-Order Density-Fitted Moller-Plesset Theory     
	              RMP2 Wavefunction,   1 Threads             
	                                                         
	        Rob Parrish, Justin Turney, Andy Simmonett,      
	           Ed Hohenstein, and C. David Sherrill          
	 --------------------------------------------------------

   => Auxiliary Basis Set <=

  Basis Set: (6-31G AUX)
    Blend: CC-PVDZ-RI
    Number of shells: 36
    Number of basis function: 112
    Number of Cartesian functions: 132
    Spherical Harmonics?: true
    Max angular momentum: 3

	 --------------------------------------------------------
	                 NBF =    18, NAUX =   112
	 --------------------------------------------------------
	   CLASS    FOCC     OCC    AOCC    AVIR     VIR    FVIR
	   PAIRS       0       7       7      11      11       0
	 --------------------------------------------------------

	-----------------------------------------------------------
	 ==================> DF-MP2 Energies <==================== 
	-----------------------------------------------------------
	 Reference Energy          =    -105.9330380880791154 [Eh]
	 Singles Energy            =      -0.0000000000000000 [Eh]
	 Same-Spin Energy          =      -0.0264076991624128 [Eh]
	 Opposite-Spin Energy      =      -0.0858898993313544 [Eh]
	 Correlation Energy        =      -0.1122975984937672 [Eh]
	 Total Energy              =    -106.0453356865728836 [Eh]
	-----------------------------------------------------------
	 ================> DF-SCS-MP2 Energies <================== 
	-----------------------------------------------------------
	 SCS Same-Spin Scale       =       0.3333333333333333 [-]
	 SCS Opposite-Spin Scale   =       1.2000000000000000 [-]
	 SCS Same-Spin Energy      =      -0.0088025663874709 [Eh]
	 SCS Opposite-Spin Energy  =      -0.1030678791976253 [Eh]
	 SCS Correlation Energy    =      -0.1118704455850962 [Eh]
	 SCS Total Energy          =    -106.0449085336642128 [Eh]
	-----------------------------------------------------------


*** tstop() called on comp0002 at Mon Jul  8 07:19:26 2019
Module time:
	user time   =       0.12 seconds =       0.00 minutes
	system time =       0.00 seconds =       0.00 minutes
	total time  =          0 seconds =       0.00 minutes
Total time:
	user time   =       3.22 seconds =       0.05 minutes
	system time =       0.41 seconds =       0.01 minutes
	total time  =          4 seconds =       0.07 minutes
Molecule: Setting geometry variable R to 0.700000

*** tstart() called on comp0002
*** at Mon Jul  8 07:19:26 2019

   => Loading Basis Set <=

    Name: 6-31G
    Role: ORBITAL
    Keyword: BASIS
    atoms 1-2 entry N          line   102 file /home/maho/psi4conda/share/psi4/basis/6-31g.gbs 


         ---------------------------------------------------------
                                   SCF
               by Justin Turney, Rob Parrish, Andy Simmonett
                          and Daniel G. A. Smith
                              RHF Reference
                        1 Threads,    500 MiB Core
         ---------------------------------------------------------

  ==> Geometry <==

    Molecular point group: c2v
    Full point group: C_inf_v

    Geometry (in Angstrom), charge = 0, multiplicity = 1:

       Center              X                  Y                   Z               Mass       
    ------------   -----------------  -----------------  -----------------  -----------------
         N            0.700000000000     0.000000000000     0.000000000000    14.003074004430
         N            0.000000000000     0.000000000000     0.000000000000    14.003074004430

  Running in c2v symmetry.

  Rotational constants: A = ************  B =      2.45684  C =      2.45684 [cm^-1]
  Rotational constants: A = ************  B =  73654.23706  C =  73654.23706 [MHz]
  Nuclear repulsion =   37.042404746900004

  Charge       = 0
  Multiplicity = 1
  Electrons    = 14
  Nalpha       = 7
  Nbeta        = 7

  ==> Algorithm <==

  SCF Algorithm Type is DF.
  DIIS enabled.
  MOM disabled.
  Fractional occupation disabled.
  Guess Type is SAD.
  Energy threshold   = 1.00e-06
  Density threshold  = 1.00e-06
  Integral threshold = 0.00e+00

  ==> Primary Basis <==

  Basis Set: 6-31G
    Blend: 6-31G
    Number of shells: 10
    Number of basis function: 18
    Number of Cartesian functions: 18
    Spherical Harmonics?: false
    Max angular momentum: 1

   => Loading Basis Set <=

    Name: (6-31G AUX)
    Role: JKFIT
    Keyword: DF_BASIS_SCF
    atoms 1-2 entry N          line   171 file /home/maho/psi4conda/share/psi4/basis/cc-pvdz-jkfit.gbs 

  ==> Pre-Iterations <==

   -------------------------------------------------------
    Irrep   Nso     Nmo     Nalpha   Nbeta   Ndocc  Nsocc
   -------------------------------------------------------
     A1        10      10       0       0       0       0
     A2         0       0       0       0       0       0
     B1         4       4       0       0       0       0
     B2         4       4       0       0       0       0
   -------------------------------------------------------
    Total      18      18       7       7       7       0
   -------------------------------------------------------

  ==> Integral Setup <==

  DFHelper Memory: AOs need 0.001 GiB; user supplied 0.366 GiB. Using in-core AOs.

  ==> MemDFJK: Density-Fitted J/K Matrices <==

    J tasked:                   Yes
    K tasked:                   Yes
    wK tasked:                   No
    OpenMP threads:               1
    Memory [MiB]:               375
    Algorithm:                 Core
    Schwarz Cutoff:           1E-12
    Mask sparsity (%):       0.0000
    Fitting Condition:        1E-10

   => Auxiliary Basis Set <=

  Basis Set: (6-31G AUX)
    Blend: CC-PVDZ-JKFIT
    Number of shells: 48
    Number of basis function: 162
    Number of Cartesian functions: 162
    Spherical Harmonics?: false
    Max angular momentum: 3

  Minimum eigenvalue in the overlap matrix is 6.2220957802E-04.
  Using Symmetric Orthogonalization.

  SCF Guess: Superposition of Atomic Densities via on-the-fly atomic UHF.

  ==> Iterations <==

                           Total Energy        Delta E     RMS |[F,P]|

   @DF-RHF iter SAD:  -108.70648115375496   -1.08706e+02   0.00000e+00 
   @DF-RHF iter   1:  -107.47364677870172    1.23283e+00   1.73577e-02 DIIS
   @DF-RHF iter   2:  -107.49474895020296   -2.11022e-02   3.25946e-03 DIIS
   @DF-RHF iter   3:  -107.49551354745250   -7.64597e-04   7.34768e-04 DIIS
   @DF-RHF iter   4:  -107.49556738758238   -5.38401e-05   7.06673e-05 DIIS
   @DF-RHF iter   5:  -107.49556799824710   -6.10665e-07   6.11103e-06 DIIS
   @DF-RHF iter   6:  -107.49556800290327   -4.65617e-09   4.48857e-07 DIIS
  Energy and wave function converged.


  ==> Post-Iterations <==

    Orbital Energies [Eh]
    ---------------------

    Doubly Occupied:                                                      

       1A1   -15.741507     2A1   -15.647973     3A1    -1.715623  
       1B2    -0.891263     1B1    -0.891263     4A1    -0.640754  
       5A1    -0.619277  

    Virtual:                                                              

       2B1     0.409099     2B2     0.409099     6A1     0.657593  
       3B2     0.678769     3B1     0.678769     7A1     0.699454  
       8A1     1.008302     4B1     1.284371     4B2     1.284371  
       9A1     1.470511    10A1     3.965568  

    Final Occupation by Irrep:
             A1    A2    B1    B2 
    DOCC [     5,    0,    1,    1 ]

  @DF-RHF Final Energy:  -107.49556800290327

   => Energetics <=

    Nuclear Repulsion Energy =             37.0424047469000044
    One-Electron Energy =                -216.7806184406275065
    Two-Electron Energy =                  72.2426456908242471
    Total Energy =                       -107.4955680029032692

Computation Completed


Properties will be evaluated at   0.000000,   0.000000,   0.000000 [a0]

Properties computed using the SCF density matrix

  Nuclear Dipole Moment: [e a0]
     X:     9.2597      Y:     0.0000      Z:     0.0000

  Electronic Dipole Moment: [e a0]
     X:    -9.2597      Y:     0.0000      Z:     0.0000

  Dipole Moment: [e a0]
     X:     0.0000      Y:     0.0000      Z:     0.0000     Total:     0.0000

  Dipole Moment: [D]
     X:     0.0000      Y:     0.0000      Z:     0.0000     Total:     0.0000


*** tstop() called on comp0002 at Mon Jul  8 07:19:27 2019
Module time:
	user time   =       0.54 seconds =       0.01 minutes
	system time =       0.01 seconds =       0.00 minutes
	total time  =          1 seconds =       0.02 minutes
Total time:
	user time   =       3.77 seconds =       0.06 minutes
	system time =       0.42 seconds =       0.01 minutes
	total time  =          5 seconds =       0.08 minutes

*** tstart() called on comp0002
*** at Mon Jul  8 07:19:27 2019

   => Loading Basis Set <=

    Name: 6-31G
    Role: ORBITAL
    Keyword: BASIS
    atoms 1-2 entry N          line   102 file /home/maho/psi4conda/share/psi4/basis/6-31g.gbs 


         ---------------------------------------------------------
                                   SCF
               by Justin Turney, Rob Parrish, Andy Simmonett
                          and Daniel G. A. Smith
                              RHF Reference
                        1 Threads,    500 MiB Core
         ---------------------------------------------------------

  ==> Geometry <==

    Molecular point group: c2v
    Full point group: C_inf_v

    Geometry (in Angstrom), charge = 0, multiplicity = 1:

       Center              X                  Y                   Z               Mass       
    ------------   -----------------  -----------------  -----------------  -----------------
         N            0.700000000000     0.000000000000     0.000000000000    14.003074004430
         N            0.000000000000     0.000000000000     0.000000000000    14.003074004430

  Running in c2v symmetry.

  Rotational constants: A = ************  B =      2.45684  C =      2.45684 [cm^-1]
  Rotational constants: A = ************  B =  73654.23706  C =  73654.23706 [MHz]
  Nuclear repulsion =   37.042404746900004

  Charge       = 0
  Multiplicity = 1
  Electrons    = 14
  Nalpha       = 7
  Nbeta        = 7

  ==> Algorithm <==

  SCF Algorithm Type is PK.
  DIIS enabled.
  MOM disabled.
  Fractional occupation disabled.
  Guess Type is SAD.
  Energy threshold   = 1.00e-08
  Density threshold  = 1.00e-08
  Integral threshold = 0.00e+00

  ==> Primary Basis <==

  Basis Set: 6-31G
    Blend: 6-31G
    Number of shells: 10
    Number of basis function: 18
    Number of Cartesian functions: 18
    Spherical Harmonics?: false
    Max angular momentum: 1

  ==> Pre-Iterations <==

   -------------------------------------------------------
    Irrep   Nso     Nmo     Nalpha   Nbeta   Ndocc  Nsocc
   -------------------------------------------------------
     A1        10      10       0       0       0       0
     A2         0       0       0       0       0       0
     B1         4       4       0       0       0       0
     B2         4       4       0       0       0       0
   -------------------------------------------------------
    Total      18      18       7       7       7       0
   -------------------------------------------------------

  ==> Integral Setup <==

  Using in-core PK algorithm.
   Calculation information:
      Number of atoms:                   2
      Number of AO shells:              10
      Number of primitives:             28
      Number of atomic orbitals:        18
      Number of basis functions:        18

      Integral cutoff                 1.00e-12
      Number of threads:                 1

  Performing in-core PK
  Using 29412 doubles for integral storage.
  We computed 1540 shell quartets total.
  Whereas there are 1540 unique shell quartets.

  ==> DiskJK: Disk-Based J/K Matrices <==

    J tasked:                  Yes
    K tasked:                  Yes
    wK tasked:                  No
    Memory [MiB]:              375
    Schwarz Cutoff:          1E-12

    OpenMP threads:              1

  Minimum eigenvalue in the overlap matrix is 6.2220957802E-04.
  Using Symmetric Orthogonalization.

  SCF Guess: Superposition of Atomic Densities via on-the-fly atomic UHF.

  ==> Iterations <==

                        Total Energy        Delta E     RMS |[F,P]|

   @RHF iter SAD:  -108.70658516891295   -1.08707e+02   0.00000e+00 
   @RHF iter   1:  -107.47384954499218    1.23274e+00   1.73575e-02 DIIS
   @RHF iter   2:  -107.49495102327508   -2.11015e-02   3.25910e-03 DIIS
   @RHF iter   3:  -107.49571561493468   -7.64592e-04   7.34865e-04 DIIS
   @RHF iter   4:  -107.49576947273555   -5.38578e-05   7.06708e-05 DIIS
   @RHF iter   5:  -107.49577008346409   -6.10729e-07   6.10905e-06 DIIS
   @RHF iter   6:  -107.49577008811670   -4.65261e-09   4.48721e-07 DIIS
   @RHF iter   7:  -107.49577008813702   -2.03215e-11   2.32255e-08 DIIS
   @RHF iter   8:  -107.49577008813701    1.42109e-14   1.12467e-09 DIIS
  Energy and wave function converged.


  ==> Post-Iterations <==

    Orbital Energies [Eh]
    ---------------------

    Doubly Occupied:                                                      

       1A1   -15.741432     2A1   -15.647893     3A1    -1.715589  
       1B1    -0.891295     1B2    -0.891295     4A1    -0.640763  
       5A1    -0.619251  

    Virtual:                                                              

       2B1     0.409095     2B2     0.409095     6A1     0.657618  
       3B1     0.678712     3B2     0.678712     7A1     0.699435  
       8A1     1.008317     4B1     1.284345     4B2     1.284345  
       9A1     1.470531    10A1     3.965537  

    Final Occupation by Irrep:
             A1    A2    B1    B2 
    DOCC [     5,    0,    1,    1 ]

  @RHF Final Energy:  -107.49577008813701

   => Energetics <=

    Nuclear Repulsion Energy =             37.0424047469000044
    One-Electron Energy =                -216.7813141955978438
    Two-Electron Energy =                  72.2431393605608179
    Total Energy =                       -107.4957700881370073

Computation Completed


Properties will be evaluated at   0.000000,   0.000000,   0.000000 [a0]

Properties computed using the SCF density matrix

  Nuclear Dipole Moment: [e a0]
     X:     9.2597      Y:     0.0000      Z:     0.0000

  Electronic Dipole Moment: [e a0]
     X:    -9.2597      Y:     0.0000      Z:     0.0000

  Dipole Moment: [e a0]
     X:     0.0000      Y:     0.0000      Z:     0.0000     Total:     0.0000

  Dipole Moment: [D]
     X:     0.0000      Y:     0.0000      Z:     0.0000     Total:     0.0000


*** tstop() called on comp0002 at Mon Jul  8 07:19:27 2019
Module time:
	user time   =       0.39 seconds =       0.01 minutes
	system time =       0.01 seconds =       0.00 minutes
	total time  =          0 seconds =       0.00 minutes
Total time:
	user time   =       4.17 seconds =       0.07 minutes
	system time =       0.43 seconds =       0.01 minutes
	total time  =          5 seconds =       0.08 minutes
 MINTS: Wrapper to libmints.
   by Justin Turney

   Calculation information:
      Number of threads:                 1
      Number of atoms:                   2
      Number of AO shells:              10
      Number of SO shells:              10
      Number of primitives:             28
      Number of atomic orbitals:        18
      Number of basis functions:        18

      Number of irreps:                  4
      Integral cutoff                 0.00e+00
      Number of functions per irrep: [  10    0    4    4 ]

 OEINTS: Overlap, kinetic, potential, dipole, and quadrupole integrals
         stored in file 35.

      Computing two-electron integrals...done
      Computed 4350 non-zero two-electron integrals.
        Stored in file 33.


*** tstart() called on comp0002
*** at Mon Jul  8 07:19:27 2019


	Wfn Parameters:
	--------------------
	Wavefunction         = CCSD_T
	Number of irreps     = 4
	Number of MOs        = 18
	Number of active MOs = 18
	AO-Basis             = NONE
	Semicanonical        = false
	Reference            = RHF
	Print Level          = 1

	IRREP	# MOs	# FZDC	# DOCC	# SOCC	# VIRT	# FZVR
	-----	-----	------	------	------	------	------
	 A1	   10	    0	    5	    0	    5	    0
	 A2	   0	    0	    0	    0	    0	    0
	 B1	   4	    0	    1	    0	    3	    0
[...]

  Dipole Moment: [e a0]
     X:     0.0000      Y:     0.0000      Z:     0.0000     Total:     0.0000

  Dipole Moment: [D]
     X:     0.0000      Y:     0.0000      Z:     0.0000     Total:     0.0000


*** tstop() called on comp0002 at Mon Jul  8 07:19:56 2019
Module time:
	user time   =       0.55 seconds =       0.01 minutes
	system time =       0.01 seconds =       0.00 minutes
	total time  =          1 seconds =       0.02 minutes
Total time:
	user time   =      27.85 seconds =       0.46 minutes
	system time =       4.16 seconds =       0.07 minutes
	total time  =         34 seconds =       0.57 minutes

*** tstart() called on comp0002
*** at Mon Jul  8 07:19:56 2019


  //>>>>>>>>>>>>>>>>>>>>>>>>>>>>>>>>>>>//
  //               DFMP2               //
  //<<<<<<<<<<<<<<<<<<<<<<<<<<<<<<<<<<<//

   => Loading Basis Set <=

    Name: (6-31G AUX)
    Role: RIFIT
    Keyword: DF_BASIS_MP2
    atoms 1-2 entry N          line   197 file /home/maho/psi4conda/share/psi4/basis/cc-pvdz-ri.gbs 

	 --------------------------------------------------------
	                          DF-MP2                         
	      2nd-Order Density-Fitted Moller-Plesset Theory     
	              RMP2 Wavefunction,   1 Threads             
	                                                         
	        Rob Parrish, Justin Turney, Andy Simmonett,      
	           Ed Hohenstein, and C. David Sherrill          
	 --------------------------------------------------------

   => Auxiliary Basis Set <=

  Basis Set: (6-31G AUX)
    Blend: CC-PVDZ-RI
    Number of shells: 36
    Number of basis function: 112
    Number of Cartesian functions: 132
    Spherical Harmonics?: true
    Max angular momentum: 3

	 --------------------------------------------------------
	                 NBF =    18, NAUX =   112
	 --------------------------------------------------------
	   CLASS    FOCC     OCC    AOCC    AVIR     VIR    FVIR
	   PAIRS       0       7       7      11      11       0
	 --------------------------------------------------------

	-----------------------------------------------------------
	 ==================> DF-MP2 Energies <==================== 
	-----------------------------------------------------------
	 Reference Energy          =    -107.9825029264087419 [Eh]
	 Singles Energy            =      -0.0000000000000000 [Eh]
	 Same-Spin Energy          =      -0.6051885703396758 [Eh]
	 Opposite-Spin Energy      =      -1.2299575334813095 [Eh]
	 Correlation Energy        =      -1.8351461038209853 [Eh]
	 Total Energy              =    -109.8176490302297310 [Eh]
	-----------------------------------------------------------
	 ================> DF-SCS-MP2 Energies <================== 
	-----------------------------------------------------------
	 SCS Same-Spin Scale       =       0.3333333333333333 [-]
	 SCS Opposite-Spin Scale   =       1.2000000000000000 [-]
	 SCS Same-Spin Energy      =      -0.2017295234465586 [Eh]
	 SCS Opposite-Spin Energy  =      -1.4759490401775714 [Eh]
	 SCS Correlation Energy    =      -1.6776785636241300 [Eh]
	 SCS Total Energy          =    -109.6601814900328691 [Eh]
	-----------------------------------------------------------


*** tstop() called on comp0002 at Mon Jul  8 07:19:56 2019
Module time:
	user time   =       0.12 seconds =       0.00 minutes
	system time =       0.00 seconds =       0.00 minutes
	total time  =          0 seconds =       0.00 minutes
Total time:
	user time   =      27.98 seconds =       0.47 minutes
	system time =       4.16 seconds =       0.07 minutes
	total time  =         34 seconds =       0.57 minutes
Molecule: Setting geometry variable R to 4.000000

*** tstart() called on comp0002
*** at Mon Jul  8 07:19:56 2019

   => Loading Basis Set <=

    Name: 6-31G
    Role: ORBITAL
    Keyword: BASIS
    atoms 1-2 entry N          line   102 file /home/maho/psi4conda/share/psi4/basis/6-31g.gbs 


         ---------------------------------------------------------
                                   SCF
               by Justin Turney, Rob Parrish, Andy Simmonett
                          and Daniel G. A. Smith
                              RHF Reference
                        1 Threads,    500 MiB Core
         ---------------------------------------------------------

  ==> Geometry <==

    Molecular point group: c2v
    Full point group: C_inf_v

    Geometry (in Angstrom), charge = 0, multiplicity = 1:

       Center              X                  Y                   Z               Mass       
    ------------   -----------------  -----------------  -----------------  -----------------
         N            4.000000000000     0.000000000000     0.000000000000    14.003074004430
         N            0.000000000000     0.000000000000     0.000000000000    14.003074004430

  Running in c2v symmetry.

  Rotational constants: A = ************  B =      0.07524  C =      0.07524 [cm^-1]
  Rotational constants: A = ************  B =   2255.66101  C =   2255.66101 [MHz]
  Nuclear repulsion =    6.482420830707500

  Charge       = 0
  Multiplicity = 1
  Electrons    = 14
  Nalpha       = 7
  Nbeta        = 7

  ==> Algorithm <==

  SCF Algorithm Type is DF.
  DIIS enabled.
  MOM disabled.
  Fractional occupation disabled.
  Guess Type is SAD.
  Energy threshold   = 1.00e-06
  Density threshold  = 1.00e-06
  Integral threshold = 0.00e+00

  ==> Primary Basis <==

  Basis Set: 6-31G
    Blend: 6-31G
    Number of shells: 10
    Number of basis function: 18
    Number of Cartesian functions: 18
    Spherical Harmonics?: false
    Max angular momentum: 1

   => Loading Basis Set <=

    Name: (6-31G AUX)
    Role: JKFIT
    Keyword: DF_BASIS_SCF
    atoms 1-2 entry N          line   171 file /home/maho/psi4conda/share/psi4/basis/cc-pvdz-jkfit.gbs 

  ==> Pre-Iterations <==

   -------------------------------------------------------
    Irrep   Nso     Nmo     Nalpha   Nbeta   Ndocc  Nsocc
   -------------------------------------------------------
     A1        10      10       0       0       0       0
     A2         0       0       0       0       0       0
     B1         4       4       0       0       0       0
     B2         4       4       0       0       0       0
   -------------------------------------------------------
    Total      18      18       7       7       7       0
   -------------------------------------------------------

  ==> Integral Setup <==

  DFHelper Memory: AOs need 0.001 GiB; user supplied 0.366 GiB. Using in-core AOs.

  ==> MemDFJK: Density-Fitted J/K Matrices <==

    J tasked:                   Yes
    K tasked:                   Yes
    wK tasked:                   No
    OpenMP threads:               1
    Memory [MiB]:               375
    Algorithm:                 Core
    Schwarz Cutoff:           1E-12
    Mask sparsity (%):       5.5556
    Fitting Condition:        1E-10

   => Auxiliary Basis Set <=

  Basis Set: (6-31G AUX)
    Blend: CC-PVDZ-JKFIT
    Number of shells: 48
    Number of basis function: 162
    Number of Cartesian functions: 162
    Spherical Harmonics?: false
    Max angular momentum: 3

  Minimum eigenvalue in the overlap matrix is 2.2159320288E-01.
  Using Symmetric Orthogonalization.

  SCF Guess: Superposition of Atomic Densities via on-the-fly atomic UHF.

  ==> Iterations <==

                           Total Energy        Delta E     RMS |[F,P]|

   @DF-RHF iter SAD:  -106.67588061776775   -1.06676e+02   0.00000e+00 
   @DF-RHF iter   1:  -107.85147780059987   -1.17560e+00   8.12342e-03 DIIS
   @DF-RHF iter   2:  -107.85780705348677   -6.32925e-03   2.14822e-03 DIIS
   @DF-RHF iter   3:  -107.85823094118510   -4.23888e-04   2.37822e-04 DIIS
   @DF-RHF iter   4:  -107.85823508902902   -4.14784e-06   1.84392e-05 DIIS
   @DF-RHF iter   5:  -107.85823511955701   -3.05280e-08   1.25991e-05 DIIS
   @DF-RHF iter   6:  -107.85823480231971    3.17237e-07   8.20078e-05 DIIS
   @DF-RHF iter   7:  -107.85823512801669   -3.25697e-07   1.00169e-07 DIIS
  Energy and wave function converged.


  ==> Post-Iterations <==

    Orbital Energies [Eh]
    ---------------------

    Doubly Occupied:                                                      

       1A1   -15.807281     2A1   -15.807246     3A1    -1.016262  
       4A1    -1.009258     5A1    -0.312276     1B2    -0.305261  
       1B1    -0.305261  

    Virtual:                                                              

       2B2    -0.174187     2B1    -0.174187     6A1    -0.163089  
       7A1     0.851064     3B2     0.885219     3B1     0.885219  
       4B2     0.893484     4B1     0.893484     8A1     0.917766  
       9A1     0.934731    10A1     0.962871  

    Final Occupation by Irrep:
             A1    A2    B1    B2 
    DOCC [     5,    0,    1,    1 ]

  @DF-RHF Final Energy:  -107.85823512801669

   => Energetics <=

    Nuclear Repulsion Energy =              6.4824208307075004
    One-Electron Energy =                -159.5556243385730681
    Two-Electron Energy =                  45.2149683798488837
    Total Energy =                       -107.8582351280166876

Computation Completed


Properties will be evaluated at   0.000000,   0.000000,   0.000000 [a0]

Properties computed using the SCF density matrix

  Nuclear Dipole Moment: [e a0]
     X:    52.9123      Y:     0.0000      Z:     0.0000

  Electronic Dipole Moment: [e a0]
     X:   -52.9123      Y:     0.0000      Z:     0.0000

  Dipole Moment: [e a0]
     X:     0.0000      Y:     0.0000      Z:     0.0000     Total:     0.0000

  Dipole Moment: [D]
     X:     0.0000      Y:     0.0000      Z:     0.0000     Total:     0.0000


*** tstop() called on comp0002 at Mon Jul  8 07:19:57 2019
Module time:
	user time   =       0.45 seconds =       0.01 minutes
	system time =       0.00 seconds =       0.00 minutes
	total time  =          1 seconds =       0.02 minutes
Total time:
	user time   =      28.44 seconds =       0.47 minutes
	system time =       4.16 seconds =       0.07 minutes
	total time  =         35 seconds =       0.58 minutes
    SCF Algorithm Type (re)set to DF.

*** tstart() called on comp0002
*** at Mon Jul  8 07:19:57 2019

   => Loading Basis Set <=

    Name: 6-31G
    Role: ORBITAL
    Keyword: BASIS
    atoms 1-2 entry N          line   102 file /home/maho/psi4conda/share/psi4/basis/6-31g.gbs 


         ---------------------------------------------------------
                                   SCF
               by Justin Turney, Rob Parrish, Andy Simmonett
                          and Daniel G. A. Smith
                              RHF Reference
                        1 Threads,    500 MiB Core
         ---------------------------------------------------------

  ==> Geometry <==

    Molecular point group: c2v
    Full point group: C_inf_v

    Geometry (in Angstrom), charge = 0, multiplicity = 1:

       Center              X                  Y                   Z               Mass       
    ------------   -----------------  -----------------  -----------------  -----------------
         N            4.000000000000     0.000000000000     0.000000000000    14.003074004430
         N            0.000000000000     0.000000000000     0.000000000000    14.003074004430

  Running in c2v symmetry.

  Rotational constants: A = ************  B =      0.07524  C =      0.07524 [cm^-1]
  Rotational constants: A = ************  B =   2255.66101  C =   2255.66101 [MHz]
  Nuclear repulsion =    6.482420830707500

  Charge       = 0
  Multiplicity = 1
  Electrons    = 14
  Nalpha       = 7
  Nbeta        = 7

  ==> Algorithm <==

  SCF Algorithm Type is DF.
  DIIS enabled.
  MOM disabled.
  Fractional occupation disabled.
  Guess Type is SAD.
  Energy threshold   = 1.00e-08
  Density threshold  = 1.00e-08
  Integral threshold = 0.00e+00

  ==> Primary Basis <==

  Basis Set: 6-31G
    Blend: 6-31G
    Number of shells: 10
    Number of basis function: 18
    Number of Cartesian functions: 18
    Spherical Harmonics?: false
    Max angular momentum: 1

   => Loading Basis Set <=

    Name: (6-31G AUX)
    Role: JKFIT
    Keyword: DF_BASIS_SCF
    atoms 1-2 entry N          line   171 file /home/maho/psi4conda/share/psi4/basis/cc-pvdz-jkfit.gbs 

  ==> Pre-Iterations <==

   -------------------------------------------------------
    Irrep   Nso     Nmo     Nalpha   Nbeta   Ndocc  Nsocc
   -------------------------------------------------------
     A1        10      10       0       0       0       0
     A2         0       0       0       0       0       0
     B1         4       4       0       0       0       0
     B2         4       4       0       0       0       0
   -------------------------------------------------------
    Total      18      18       7       7       7       0
   -------------------------------------------------------

  ==> Integral Setup <==

  DFHelper Memory: AOs need 0.001 GiB; user supplied 0.366 GiB. Using in-core AOs.

  ==> MemDFJK: Density-Fitted J/K Matrices <==

    J tasked:                   Yes
    K tasked:                   Yes
    wK tasked:                   No
    OpenMP threads:               1
    Memory [MiB]:               375
    Algorithm:                 Core
    Schwarz Cutoff:           1E-12
    Mask sparsity (%):       5.5556
    Fitting Condition:        1E-10

   => Auxiliary Basis Set <=

  Basis Set: (6-31G AUX)
    Blend: CC-PVDZ-JKFIT
    Number of shells: 48
    Number of basis function: 162
    Number of Cartesian functions: 162
    Spherical Harmonics?: false
    Max angular momentum: 3

  Minimum eigenvalue in the overlap matrix is 2.2159320288E-01.
  Using Symmetric Orthogonalization.

  SCF Guess: Superposition of Atomic Densities via on-the-fly atomic UHF.

  ==> Iterations <==

                           Total Energy        Delta E     RMS |[F,P]|

   @DF-RHF iter SAD:  -106.67588061776775   -1.06676e+02   0.00000e+00 
   @DF-RHF iter   1:  -107.85147780059987   -1.17560e+00   8.12342e-03 DIIS
   @DF-RHF iter   2:  -107.85780705348677   -6.32925e-03   2.14822e-03 DIIS
   @DF-RHF iter   3:  -107.85823094118510   -4.23888e-04   2.37822e-04 DIIS
   @DF-RHF iter   4:  -107.85823508902902   -4.14784e-06   1.84392e-05 DIIS
   @DF-RHF iter   5:  -107.85823511955701   -3.05280e-08   1.25991e-05 DIIS
   @DF-RHF iter   6:  -107.85823480231971    3.17237e-07   8.20078e-05 DIIS
   @DF-RHF iter   7:  -107.85823512801669   -3.25697e-07   1.00169e-07 DIIS
   @DF-RHF iter   8:  -107.85823512801883   -2.14584e-12   5.28566e-08 DIIS
   @DF-RHF iter   9:  -107.85823512801892   -8.52651e-14   5.46757e-08 DIIS
   @DF-RHF iter  10:  -107.85823512801808    8.38440e-13   1.12126e-08 DIIS
   @DF-RHF iter  11:  -107.85823512801801    7.10543e-14   4.72049e-09 DIIS
  Energy and wave function converged.


  ==> Post-Iterations <==

    Orbital Energies [Eh]
    ---------------------

    Doubly Occupied:                                                      

       1A1   -15.807281     2A1   -15.807246     3A1    -1.016262  
       4A1    -1.009258     5A1    -0.312276     1B2    -0.305261  
       1B1    -0.305261  

    Virtual:                                                              

       2B2    -0.174187     2B1    -0.174187     6A1    -0.163089  
       7A1     0.851064     3B2     0.885219     3B1     0.885219  
       4B2     0.893484     4B1     0.893484     8A1     0.917766  
       9A1     0.934731    10A1     0.962871  

    Final Occupation by Irrep:
             A1    A2    B1    B2 
    DOCC [     5,    0,    1,    1 ]

  @DF-RHF Final Energy:  -107.85823512801801

   => Energetics <=

    Nuclear Repulsion Energy =              6.4824208307075004
    One-Electron Energy =                -159.5556254758814134
    Two-Electron Energy =                  45.2149695171559003
    Total Energy =                       -107.8582351280180092

Computation Completed


Properties will be evaluated at   0.000000,   0.000000,   0.000000 [a0]

Properties computed using the SCF density matrix

  Nuclear Dipole Moment: [e a0]
     X:    52.9123      Y:     0.0000      Z:     0.0000

  Electronic Dipole Moment: [e a0]
     X:   -52.9123      Y:     0.0000      Z:     0.0000

  Dipole Moment: [e a0]
     X:    -0.0000      Y:     0.0000      Z:     0.0000     Total:     0.0000

  Dipole Moment: [D]
     X:    -0.0000      Y:     0.0000      Z:     0.0000     Total:     0.0000


*** tstop() called on comp0002 at Mon Jul  8 07:19:57 2019
Module time:
	user time   =       0.46 seconds =       0.01 minutes
	system time =       0.01 seconds =       0.00 minutes
	total time  =          0 seconds =       0.00 minutes
Total time:
	user time   =      28.91 seconds =       0.48 minutes
	system time =       4.17 seconds =       0.07 minutes
	total time  =         35 seconds =       0.58 minutes

*** tstart() called on comp0002
*** at Mon Jul  8 07:19:57 2019


  //>>>>>>>>>>>>>>>>>>>>>>>>>>>>>>>>>>>//
  //               DFMP2               //
  //<<<<<<<<<<<<<<<<<<<<<<<<<<<<<<<<<<<//

   => Loading Basis Set <=

    Name: (6-31G AUX)
    Role: RIFIT
    Keyword: DF_BASIS_MP2
    atoms 1-2 entry N          line   197 file /home/maho/psi4conda/share/psi4/basis/cc-pvdz-ri.gbs 

	 --------------------------------------------------------
	                          DF-MP2                         
	      2nd-Order Density-Fitted Moller-Plesset Theory     
	              RMP2 Wavefunction,   1 Threads             
	                                                         
	        Rob Parrish, Justin Turney, Andy Simmonett,      
	           Ed Hohenstein, and C. David Sherrill          
	 --------------------------------------------------------

   => Auxiliary Basis Set <=

  Basis Set: (6-31G AUX)
    Blend: CC-PVDZ-RI
    Number of shells: 36
    Number of basis function: 112
    Number of Cartesian functions: 132
    Spherical Harmonics?: true
    Max angular momentum: 3

	 --------------------------------------------------------
	                 NBF =    18, NAUX =   112
	 --------------------------------------------------------
	   CLASS    FOCC     OCC    AOCC    AVIR     VIR    FVIR
	   PAIRS       0       7       7      11      11       0
	 --------------------------------------------------------

	-----------------------------------------------------------
	 ==================> DF-MP2 Energies <==================== 
	-----------------------------------------------------------
	 Reference Energy          =    -107.8582351280180092 [Eh]
	 Singles Energy            =      -0.0000000000000000 [Eh]
	 Same-Spin Energy          =      -1.0534678751911930 [Eh]
	 Opposite-Spin Energy      =      -2.0628977350737441 [Eh]
	 Correlation Energy        =      -3.1163656102649373 [Eh]
	 Total Energy              =    -110.9746007382829447 [Eh]
	-----------------------------------------------------------
	 ================> DF-SCS-MP2 Energies <================== 
	-----------------------------------------------------------
	 SCS Same-Spin Scale       =       0.3333333333333333 [-]
	 SCS Opposite-Spin Scale   =       1.2000000000000000 [-]
	 SCS Same-Spin Energy      =      -0.3511559583970643 [Eh]
	 SCS Opposite-Spin Energy  =      -2.4754772820884927 [Eh]
	 SCS Correlation Energy    =      -2.8266332404855570 [Eh]
	 SCS Total Energy          =    -110.6848683685035724 [Eh]
	-----------------------------------------------------------


*** tstop() called on comp0002 at Mon Jul  8 07:19:57 2019
Module time:
	user time   =       0.12 seconds =       0.00 minutes
	system time =       0.01 seconds =       0.00 minutes
	total time  =          0 seconds =       0.00 minutes
Total time:
	user time   =      29.03 seconds =       0.48 minutes
	system time =       4.18 seconds =       0.07 minutes
	total time  =         35 seconds =       0.58 minutes

    Psi4 stopped on: Monday, 08 July 2019 07:19AM
    Psi4 wall time for execution: 0:00:35.06

*** Psi4 exiting successfully. Buy a developer a beer!
